+ 0 1 2 tcp 40 ------- 1 1.0 3.1 0 0
- 0 1 2 tcp 40 ------- 1 1.0 3.1 0 0
r 0.02128 1 2 tcp 40 ------- 1 1.0 3.1 0 0
+ 0.02128 2 3 tcp 40 ------- 1 1.0 3.1 0 0
- 0.02128 2 3 tcp 40 ------- 1 1.0 3.1 0 0
r 0.04256 2 3 tcp 40 ------- 1 1.0 3.1 0 0
+ 0.04256 3 2 ack 40 ------- 1 3.1 1.0 0 1
- 0.04256 3 2 ack 40 ------- 1 3.1 1.0 0 1
r 0.06384 3 2 ack 40 ------- 1 3.1 1.0 0 1
+ 0.06384 2 1 ack 40 ------- 1 3.1 1.0 0 1
- 0.06384 2 1 ack 40 ------- 1 3.1 1.0 0 1
r 0.08512 2 1 ack 40 ------- 1 3.1 1.0 0 1
+ 0.08512 1 2 tcp 1040 ------- 1 1.0 3.1 1 2
- 0.08512 1 2 tcp 1040 ------- 1 1.0 3.1 1 2
+ 0.08512 1 2 tcp 1040 ------- 1 1.0 3.1 2 3
- 0.1184 1 2 tcp 1040 ------- 1 1.0 3.1 2 3
r 0.1384 1 2 tcp 1040 ------- 1 1.0 3.1 1 2
+ 0.1384 2 3 tcp 1040 ------- 1 1.0 3.1 1 2
- 0.1384 2 3 tcp 1040 ------- 1 1.0 3.1 1 2
r 0.17168 1 2 tcp 1040 ------- 1 1.0 3.1 2 3
+ 0.17168 2 3 tcp 1040 ------- 1 1.0 3.1 2 3
- 0.17168 2 3 tcp 1040 ------- 1 1.0 3.1 2 3
r 0.19168 2 3 tcp 1040 ------- 1 1.0 3.1 1 2
+ 0.19168 3 2 ack 40 ------- 1 3.1 1.0 1 4
- 0.19168 3 2 ack 40 ------- 1 3.1 1.0 1 4
r 0.21296 3 2 ack 40 ------- 1 3.1 1.0 1 4
+ 0.21296 2 1 ack 40 ------- 1 3.1 1.0 1 4
- 0.21296 2 1 ack 40 ------- 1 3.1 1.0 1 4
r 0.22496 2 3 tcp 1040 ------- 1 1.0 3.1 2 3
+ 0.22496 3 2 ack 40 ------- 1 3.1 1.0 2 5
- 0.22496 3 2 ack 40 ------- 1 3.1 1.0 2 5
r 0.23424 2 1 ack 40 ------- 1 3.1 1.0 1 4
+ 0.23424 1 2 tcp 1040 ------- 1 1.0 3.1 3 6
- 0.23424 1 2 tcp 1040 ------- 1 1.0 3.1 3 6
+ 0.23424 1 2 tcp 1040 ------- 1 1.0 3.1 4 7
r 0.24624 3 2 ack 40 ------- 1 3.1 1.0 2 5
+ 0.24624 2 1 ack 40 ------- 1 3.1 1.0 2 5
- 0.24624 2 1 ack 40 ------- 1 3.1 1.0 2 5
- 0.26752 1 2 tcp 1040 ------- 1 1.0 3.1 4 7
r 0.26752 2 1 ack 40 ------- 1 3.1 1.0 2 5
+ 0.26752 1 2 tcp 1040 ------- 1 1.0 3.1 5 8
+ 0.26752 1 2 tcp 1040 ------- 1 1.0 3.1 6 9
r 0.28752 1 2 tcp 1040 ------- 1 1.0 3.1 3 6
+ 0.28752 2 3 tcp 1040 ------- 1 1.0 3.1 3 6
- 0.28752 2 3 tcp 1040 ------- 1 1.0 3.1 3 6
- 0.3008 1 2 tcp 1040 ------- 1 1.0 3.1 5 8
r 0.3208 1 2 tcp 1040 ------- 1 1.0 3.1 4 7
+ 0.3208 2 3 tcp 1040 ------- 1 1.0 3.1 4 7
- 0.3208 2 3 tcp 1040 ------- 1 1.0 3.1 4 7
- 0.33408 1 2 tcp 1040 ------- 1 1.0 3.1 6 9
r 0.3408 2 3 tcp 1040 ------- 1 1.0 3.1 3 6
+ 0.3408 3 2 ack 40 ------- 1 3.1 1.0 3 10
- 0.3408 3 2 ack 40 ------- 1 3.1 1.0 3 10
r 0.35408 1 2 tcp 1040 ------- 1 1.0 3.1 5 8
+ 0.35408 2 3 tcp 1040 ------- 1 1.0 3.1 5 8
- 0.35408 2 3 tcp 1040 ------- 1 1.0 3.1 5 8
r 0.36208 3 2 ack 40 ------- 1 3.1 1.0 3 10
+ 0.36208 2 1 ack 40 ------- 1 3.1 1.0 3 10
- 0.36208 2 1 ack 40 ------- 1 3.1 1.0 3 10
r 0.37408 2 3 tcp 1040 ------- 1 1.0 3.1 4 7
+ 0.37408 3 2 ack 40 ------- 1 3.1 1.0 4 11
- 0.37408 3 2 ack 40 ------- 1 3.1 1.0 4 11
r 0.38336 2 1 ack 40 ------- 1 3.1 1.0 3 10
+ 0.38336 1 2 tcp 1040 ------- 1 1.0 3.1 7 12
- 0.38336 1 2 tcp 1040 ------- 1 1.0 3.1 7 12
+ 0.38336 1 2 tcp 1040 ------- 1 1.0 3.1 8 13
r 0.38736 1 2 tcp 1040 ------- 1 1.0 3.1 6 9
+ 0.38736 2 3 tcp 1040 ------- 1 1.0 3.1 6 9
- 0.38736 2 3 tcp 1040 ------- 1 1.0 3.1 6 9
r 0.39536 3 2 ack 40 ------- 1 3.1 1.0 4 11
+ 0.39536 2 1 ack 40 ------- 1 3.1 1.0 4 11
- 0.39536 2 1 ack 40 ------- 1 3.1 1.0 4 11
r 0.40736 2 3 tcp 1040 ------- 1 1.0 3.1 5 8
+ 0.40736 3 2 ack 40 ------- 1 3.1 1.0 5 14
- 0.40736 3 2 ack 40 ------- 1 3.1 1.0 5 14
- 0.41664 1 2 tcp 1040 ------- 1 1.0 3.1 8 13
r 0.41664 2 1 ack 40 ------- 1 3.1 1.0 4 11
+ 0.41664 1 2 tcp 1040 ------- 1 1.0 3.1 9 15
+ 0.41664 1 2 tcp 1040 ------- 1 1.0 3.1 10 16
r 0.42864 3 2 ack 40 ------- 1 3.1 1.0 5 14
+ 0.42864 2 1 ack 40 ------- 1 3.1 1.0 5 14
- 0.42864 2 1 ack 40 ------- 1 3.1 1.0 5 14
r 0.43664 1 2 tcp 1040 ------- 1 1.0 3.1 7 12
+ 0.43664 2 3 tcp 1040 ------- 1 1.0 3.1 7 12
- 0.43664 2 3 tcp 1040 ------- 1 1.0 3.1 7 12
r 0.44064 2 3 tcp 1040 ------- 1 1.0 3.1 6 9
+ 0.44064 3 2 ack 40 ------- 1 3.1 1.0 6 17
- 0.44064 3 2 ack 40 ------- 1 3.1 1.0 6 17
- 0.44992 1 2 tcp 1040 ------- 1 1.0 3.1 9 15
r 0.44992 2 1 ack 40 ------- 1 3.1 1.0 5 14
+ 0.44992 1 2 tcp 1040 ------- 1 1.0 3.1 11 18
+ 0.44992 1 2 tcp 1040 ------- 1 1.0 3.1 12 19
r 0.46192 3 2 ack 40 ------- 1 3.1 1.0 6 17
+ 0.46192 2 1 ack 40 ------- 1 3.1 1.0 6 17
- 0.46192 2 1 ack 40 ------- 1 3.1 1.0 6 17
r 0.46992 1 2 tcp 1040 ------- 1 1.0 3.1 8 13
+ 0.46992 2 3 tcp 1040 ------- 1 1.0 3.1 8 13
- 0.46992 2 3 tcp 1040 ------- 1 1.0 3.1 8 13
- 0.4832 1 2 tcp 1040 ------- 1 1.0 3.1 10 16
r 0.4832 2 1 ack 40 ------- 1 3.1 1.0 6 17
+ 0.4832 1 2 tcp 1040 ------- 1 1.0 3.1 13 20
+ 0.4832 1 2 tcp 1040 ------- 1 1.0 3.1 14 21
r 0.48992 2 3 tcp 1040 ------- 1 1.0 3.1 7 12
+ 0.48992 3 2 ack 40 ------- 1 3.1 1.0 7 22
- 0.48992 3 2 ack 40 ------- 1 3.1 1.0 7 22
r 0.5032 1 2 tcp 1040 ------- 1 1.0 3.1 9 15
+ 0.5032 2 3 tcp 1040 ------- 1 1.0 3.1 9 15
- 0.5032 2 3 tcp 1040 ------- 1 1.0 3.1 9 15
r 0.5112 3 2 ack 40 ------- 1 3.1 1.0 7 22
+ 0.5112 2 1 ack 40 ------- 1 3.1 1.0 7 22
- 0.5112 2 1 ack 40 ------- 1 3.1 1.0 7 22
- 0.51648 1 2 tcp 1040 ------- 1 1.0 3.1 11 18
r 0.5232 2 3 tcp 1040 ------- 1 1.0 3.1 8 13
+ 0.5232 3 2 ack 40 ------- 1 3.1 1.0 8 23
- 0.5232 3 2 ack 40 ------- 1 3.1 1.0 8 23
r 0.53248 2 1 ack 40 ------- 1 3.1 1.0 7 22
+ 0.53248 1 2 tcp 1040 ------- 1 1.0 3.1 15 24
+ 0.53248 1 2 tcp 1040 ------- 1 1.0 3.1 16 25
r 0.53648 1 2 tcp 1040 ------- 1 1.0 3.1 10 16
+ 0.53648 2 3 tcp 1040 ------- 1 1.0 3.1 10 16
- 0.53648 2 3 tcp 1040 ------- 1 1.0 3.1 10 16
r 0.54448 3 2 ack 40 ------- 1 3.1 1.0 8 23
+ 0.54448 2 1 ack 40 ------- 1 3.1 1.0 8 23
- 0.54448 2 1 ack 40 ------- 1 3.1 1.0 8 23
- 0.54976 1 2 tcp 1040 ------- 1 1.0 3.1 12 19
r 0.55648 2 3 tcp 1040 ------- 1 1.0 3.1 9 15
+ 0.55648 3 2 ack 40 ------- 1 3.1 1.0 9 26
- 0.55648 3 2 ack 40 ------- 1 3.1 1.0 9 26
r 0.56576 2 1 ack 40 ------- 1 3.1 1.0 8 23
+ 0.56576 1 2 tcp 1040 ------- 1 1.0 3.1 17 27
r 0.56976 1 2 tcp 1040 ------- 1 1.0 3.1 11 18
+ 0.56976 2 3 tcp 1040 ------- 1 1.0 3.1 11 18
- 0.56976 2 3 tcp 1040 ------- 1 1.0 3.1 11 18
+ 0.5712 1 2 tcp 1040 ------- 1 1.0 3.1 18 28
r 0.57776 3 2 ack 40 ------- 1 3.1 1.0 9 26
+ 0.57776 2 1 ack 40 ------- 1 3.1 1.0 9 26
- 0.57776 2 1 ack 40 ------- 1 3.1 1.0 9 26
- 0.58304 1 2 tcp 1040 ------- 1 1.0 3.1 13 20
r 0.58976 2 3 tcp 1040 ------- 1 1.0 3.1 10 16
+ 0.58976 3 2 ack 40 ------- 1 3.1 1.0 10 29
- 0.58976 3 2 ack 40 ------- 1 3.1 1.0 10 29
r 0.59904 2 1 ack 40 ------- 1 3.1 1.0 9 26
r 0.60304 1 2 tcp 1040 ------- 1 1.0 3.1 12 19
+ 0.60304 2 3 tcp 1040 ------- 1 1.0 3.1 12 19
- 0.60304 2 3 tcp 1040 ------- 1 1.0 3.1 12 19
+ 0.6048 1 2 tcp 1040 ------- 1 1.0 3.1 19 30
r 0.61104 3 2 ack 40 ------- 1 3.1 1.0 10 29
+ 0.61104 2 1 ack 40 ------- 1 3.1 1.0 10 29
- 0.61104 2 1 ack 40 ------- 1 3.1 1.0 10 29
- 0.61632 1 2 tcp 1040 ------- 1 1.0 3.1 14 21
r 0.62304 2 3 tcp 1040 ------- 1 1.0 3.1 11 18
+ 0.62304 3 2 ack 40 ------- 1 3.1 1.0 11 31
- 0.62304 3 2 ack 40 ------- 1 3.1 1.0 11 31
r 0.63232 2 1 ack 40 ------- 1 3.1 1.0 10 29
r 0.63632 1 2 tcp 1040 ------- 1 1.0 3.1 13 20
+ 0.63632 2 3 tcp 1040 ------- 1 1.0 3.1 13 20
- 0.63632 2 3 tcp 1040 ------- 1 1.0 3.1 13 20
+ 0.6384 1 2 tcp 1040 ------- 1 1.0 3.1 20 32
r 0.64432 3 2 ack 40 ------- 1 3.1 1.0 11 31
+ 0.64432 2 1 ack 40 ------- 1 3.1 1.0 11 31
- 0.64432 2 1 ack 40 ------- 1 3.1 1.0 11 31
- 0.6496 1 2 tcp 1040 ------- 1 1.0 3.1 15 24
r 0.65632 2 3 tcp 1040 ------- 1 1.0 3.1 12 19
+ 0.65632 3 2 ack 40 ------- 1 3.1 1.0 12 33
- 0.65632 3 2 ack 40 ------- 1 3.1 1.0 12 33
r 0.6656 2 1 ack 40 ------- 1 3.1 1.0 11 31
r 0.6696 1 2 tcp 1040 ------- 1 1.0 3.1 14 21
+ 0.6696 2 3 tcp 1040 ------- 1 1.0 3.1 14 21
- 0.6696 2 3 tcp 1040 ------- 1 1.0 3.1 14 21
+ 0.672 1 2 tcp 1040 ------- 1 1.0 3.1 21 34
r 0.6776 3 2 ack 40 ------- 1 3.1 1.0 12 33
+ 0.6776 2 1 ack 40 ------- 1 3.1 1.0 12 33
- 0.6776 2 1 ack 40 ------- 1 3.1 1.0 12 33
- 0.68288 1 2 tcp 1040 ------- 1 1.0 3.1 16 25
r 0.6896 2 3 tcp 1040 ------- 1 1.0 3.1 13 20
+ 0.6896 3 2 ack 40 ------- 1 3.1 1.0 13 35
- 0.6896 3 2 ack 40 ------- 1 3.1 1.0 13 35
r 0.69888 2 1 ack 40 ------- 1 3.1 1.0 12 33
r 0.70288 1 2 tcp 1040 ------- 1 1.0 3.1 15 24
+ 0.70288 2 3 tcp 1040 ------- 1 1.0 3.1 15 24
- 0.70288 2 3 tcp 1040 ------- 1 1.0 3.1 15 24
+ 0.7056 1 2 tcp 1040 ------- 1 1.0 3.1 22 36
r 0.71088 3 2 ack 40 ------- 1 3.1 1.0 13 35
+ 0.71088 2 1 ack 40 ------- 1 3.1 1.0 13 35
- 0.71088 2 1 ack 40 ------- 1 3.1 1.0 13 35
- 0.71616 1 2 tcp 1040 ------- 1 1.0 3.1 17 27
r 0.72288 2 3 tcp 1040 ------- 1 1.0 3.1 14 21
+ 0.72288 3 2 ack 40 ------- 1 3.1 1.0 14 37
- 0.72288 3 2 ack 40 ------- 1 3.1 1.0 14 37
r 0.73216 2 1 ack 40 ------- 1 3.1 1.0 13 35
r 0.73616 1 2 tcp 1040 ------- 1 1.0 3.1 16 25
+ 0.73616 2 3 tcp 1040 ------- 1 1.0 3.1 16 25
- 0.73616 2 3 tcp 1040 ------- 1 1.0 3.1 16 25
+ 0.7392 1 2 tcp 1040 ------- 1 1.0 3.1 23 38
r 0.74416 3 2 ack 40 ------- 1 3.1 1.0 14 37
+ 0.74416 2 1 ack 40 ------- 1 3.1 1.0 14 37
- 0.74416 2 1 ack 40 ------- 1 3.1 1.0 14 37
- 0.74944 1 2 tcp 1040 ------- 1 1.0 3.1 18 28
r 0.75616 2 3 tcp 1040 ------- 1 1.0 3.1 15 24
+ 0.75616 3 2 ack 40 ------- 1 3.1 1.0 15 39
- 0.75616 3 2 ack 40 ------- 1 3.1 1.0 15 39
r 0.76544 2 1 ack 40 ------- 1 3.1 1.0 14 37
r 0.76944 1 2 tcp 1040 ------- 1 1.0 3.1 17 27
+ 0.76944 2 3 tcp 1040 ------- 1 1.0 3.1 17 27
- 0.76944 2 3 tcp 1040 ------- 1 1.0 3.1 17 27
+ 0.7728 1 2 tcp 1040 ------- 1 1.0 3.1 24 40
r 0.77744 3 2 ack 40 ------- 1 3.1 1.0 15 39
+ 0.77744 2 1 ack 40 ------- 1 3.1 1.0 15 39
- 0.77744 2 1 ack 40 ------- 1 3.1 1.0 15 39
- 0.78272 1 2 tcp 1040 ------- 1 1.0 3.1 19 30
r 0.78944 2 3 tcp 1040 ------- 1 1.0 3.1 16 25
+ 0.78944 3 2 ack 40 ------- 1 3.1 1.0 16 41
- 0.78944 3 2 ack 40 ------- 1 3.1 1.0 16 41
r 0.79872 2 1 ack 40 ------- 1 3.1 1.0 15 39
r 0.80272 1 2 tcp 1040 ------- 1 1.0 3.1 18 28
+ 0.80272 2 3 tcp 1040 ------- 1 1.0 3.1 18 28
- 0.80272 2 3 tcp 1040 ------- 1 1.0 3.1 18 28
+ 0.8064 1 2 tcp 1040 ------- 1 1.0 3.1 25 42
r 0.81072 3 2 ack 40 ------- 1 3.1 1.0 16 41
+ 0.81072 2 1 ack 40 ------- 1 3.1 1.0 16 41
- 0.81072 2 1 ack 40 ------- 1 3.1 1.0 16 41
- 0.816 1 2 tcp 1040 ------- 1 1.0 3.1 20 32
r 0.82272 2 3 tcp 1040 ------- 1 1.0 3.1 17 27
+ 0.82272 3 2 ack 40 ------- 1 3.1 1.0 17 43
- 0.82272 3 2 ack 40 ------- 1 3.1 1.0 17 43
r 0.832 2 1 ack 40 ------- 1 3.1 1.0 16 41
r 0.836 1 2 tcp 1040 ------- 1 1.0 3.1 19 30
+ 0.836 2 3 tcp 1040 ------- 1 1.0 3.1 19 30
- 0.836 2 3 tcp 1040 ------- 1 1.0 3.1 19 30
+ 0.84 1 2 tcp 1040 ------- 1 1.0 3.1 26 44
r 0.844 3 2 ack 40 ------- 1 3.1 1.0 17 43
+ 0.844 2 1 ack 40 ------- 1 3.1 1.0 17 43
- 0.844 2 1 ack 40 ------- 1 3.1 1.0 17 43
- 0.84928 1 2 tcp 1040 ------- 1 1.0 3.1 21 34
r 0.856 2 3 tcp 1040 ------- 1 1.0 3.1 18 28
+ 0.856 3 2 ack 40 ------- 1 3.1 1.0 18 45
- 0.856 3 2 ack 40 ------- 1 3.1 1.0 18 45
r 0.86528 2 1 ack 40 ------- 1 3.1 1.0 17 43
r 0.86928 1 2 tcp 1040 ------- 1 1.0 3.1 20 32
+ 0.86928 2 3 tcp 1040 ------- 1 1.0 3.1 20 32
- 0.86928 2 3 tcp 1040 ------- 1 1.0 3.1 20 32
+ 0.8736 1 2 tcp 1040 ------- 1 1.0 3.1 27 46
r 0.87728 3 2 ack 40 ------- 1 3.1 1.0 18 45
+ 0.87728 2 1 ack 40 ------- 1 3.1 1.0 18 45
- 0.87728 2 1 ack 40 ------- 1 3.1 1.0 18 45
- 0.88256 1 2 tcp 1040 ------- 1 1.0 3.1 22 36
r 0.88928 2 3 tcp 1040 ------- 1 1.0 3.1 19 30
+ 0.88928 3 2 ack 40 ------- 1 3.1 1.0 19 47
- 0.88928 3 2 ack 40 ------- 1 3.1 1.0 19 47
r 0.89856 2 1 ack 40 ------- 1 3.1 1.0 18 45
r 0.90256 1 2 tcp 1040 ------- 1 1.0 3.1 21 34
+ 0.90256 2 3 tcp 1040 ------- 1 1.0 3.1 21 34
- 0.90256 2 3 tcp 1040 ------- 1 1.0 3.1 21 34
+ 0.9072 1 2 tcp 1040 ------- 1 1.0 3.1 28 48
r 0.91056 3 2 ack 40 ------- 1 3.1 1.0 19 47
+ 0.91056 2 1 ack 40 ------- 1 3.1 1.0 19 47
- 0.91056 2 1 ack 40 ------- 1 3.1 1.0 19 47
- 0.91584 1 2 tcp 1040 ------- 1 1.0 3.1 23 38
r 0.92256 2 3 tcp 1040 ------- 1 1.0 3.1 20 32
+ 0.92256 3 2 ack 40 ------- 1 3.1 1.0 20 49
- 0.92256 3 2 ack 40 ------- 1 3.1 1.0 20 49
r 0.93184 2 1 ack 40 ------- 1 3.1 1.0 19 47
r 0.93584 1 2 tcp 1040 ------- 1 1.0 3.1 22 36
+ 0.93584 2 3 tcp 1040 ------- 1 1.0 3.1 22 36
- 0.93584 2 3 tcp 1040 ------- 1 1.0 3.1 22 36
+ 0.9408 1 2 tcp 1040 ------- 1 1.0 3.1 29 50
r 0.94384 3 2 ack 40 ------- 1 3.1 1.0 20 49
+ 0.94384 2 1 ack 40 ------- 1 3.1 1.0 20 49
- 0.94384 2 1 ack 40 ------- 1 3.1 1.0 20 49
- 0.94912 1 2 tcp 1040 ------- 1 1.0 3.1 24 40
r 0.95584 2 3 tcp 1040 ------- 1 1.0 3.1 21 34
+ 0.95584 3 2 ack 40 ------- 1 3.1 1.0 21 51
- 0.95584 3 2 ack 40 ------- 1 3.1 1.0 21 51
r 0.96512 2 1 ack 40 ------- 1 3.1 1.0 20 49
r 0.96912 1 2 tcp 1040 ------- 1 1.0 3.1 23 38
+ 0.96912 2 3 tcp 1040 ------- 1 1.0 3.1 23 38
- 0.96912 2 3 tcp 1040 ------- 1 1.0 3.1 23 38
+ 0.9744 1 2 tcp 1040 ------- 1 1.0 3.1 30 52
r 0.97712 3 2 ack 40 ------- 1 3.1 1.0 21 51
+ 0.97712 2 1 ack 40 ------- 1 3.1 1.0 21 51
- 0.97712 2 1 ack 40 ------- 1 3.1 1.0 21 51
- 0.9824 1 2 tcp 1040 ------- 1 1.0 3.1 25 42
r 0.98912 2 3 tcp 1040 ------- 1 1.0 3.1 22 36
+ 0.98912 3 2 ack 40 ------- 1 3.1 1.0 22 53
- 0.98912 3 2 ack 40 ------- 1 3.1 1.0 22 53
r 0.9984 2 1 ack 40 ------- 1 3.1 1.0 21 51
r 1.0024 1 2 tcp 1040 ------- 1 1.0 3.1 24 40
+ 1.0024 2 3 tcp 1040 ------- 1 1.0 3.1 24 40
- 1.0024 2 3 tcp 1040 ------- 1 1.0 3.1 24 40
+ 1.008 1 2 tcp 1040 ------- 1 1.0 3.1 31 54
r 1.0104 3 2 ack 40 ------- 1 3.1 1.0 22 53
+ 1.0104 2 1 ack 40 ------- 1 3.1 1.0 22 53
- 1.0104 2 1 ack 40 ------- 1 3.1 1.0 22 53
- 1.01568 1 2 tcp 1040 ------- 1 1.0 3.1 26 44
r 1.0224 2 3 tcp 1040 ------- 1 1.0 3.1 23 38
+ 1.0224 3 2 ack 40 ------- 1 3.1 1.0 23 55
- 1.0224 3 2 ack 40 ------- 1 3.1 1.0 23 55
r 1.03168 2 1 ack 40 ------- 1 3.1 1.0 22 53
r 1.03568 1 2 tcp 1040 ------- 1 1.0 3.1 25 42
+ 1.03568 2 3 tcp 1040 ------- 1 1.0 3.1 25 42
- 1.03568 2 3 tcp 1040 ------- 1 1.0 3.1 25 42
+ 1.0416 1 2 tcp 1040 ------- 1 1.0 3.1 32 56
r 1.04368 3 2 ack 40 ------- 1 3.1 1.0 23 55
+ 1.04368 2 1 ack 40 ------- 1 3.1 1.0 23 55
- 1.04368 2 1 ack 40 ------- 1 3.1 1.0 23 55
- 1.04896 1 2 tcp 1040 ------- 1 1.0 3.1 27 46
r 1.05568 2 3 tcp 1040 ------- 1 1.0 3.1 24 40
+ 1.05568 3 2 ack 40 ------- 1 3.1 1.0 24 57
- 1.05568 3 2 ack 40 ------- 1 3.1 1.0 24 57
r 1.06496 2 1 ack 40 ------- 1 3.1 1.0 23 55
r 1.06896 1 2 tcp 1040 ------- 1 1.0 3.1 26 44
+ 1.06896 2 3 tcp 1040 ------- 1 1.0 3.1 26 44
- 1.06896 2 3 tcp 1040 ------- 1 1.0 3.1 26 44
+ 1.0752 1 2 tcp 1040 ------- 1 1.0 3.1 33 58
r 1.07696 3 2 ack 40 ------- 1 3.1 1.0 24 57
+ 1.07696 2 1 ack 40 ------- 1 3.1 1.0 24 57
- 1.07696 2 1 ack 40 ------- 1 3.1 1.0 24 57
- 1.08224 1 2 tcp 1040 ------- 1 1.0 3.1 28 48
r 1.08896 2 3 tcp 1040 ------- 1 1.0 3.1 25 42
+ 1.08896 3 2 ack 40 ------- 1 3.1 1.0 25 59
- 1.08896 3 2 ack 40 ------- 1 3.1 1.0 25 59
r 1.09824 2 1 ack 40 ------- 1 3.1 1.0 24 57
r 1.10224 1 2 tcp 1040 ------- 1 1.0 3.1 27 46
+ 1.10224 2 3 tcp 1040 ------- 1 1.0 3.1 27 46
- 1.10224 2 3 tcp 1040 ------- 1 1.0 3.1 27 46
+ 1.1088 1 2 tcp 1040 ------- 1 1.0 3.1 34 60
r 1.11024 3 2 ack 40 ------- 1 3.1 1.0 25 59
+ 1.11024 2 1 ack 40 ------- 1 3.1 1.0 25 59
- 1.11024 2 1 ack 40 ------- 1 3.1 1.0 25 59
- 1.11552 1 2 tcp 1040 ------- 1 1.0 3.1 29 50
r 1.12224 2 3 tcp 1040 ------- 1 1.0 3.1 26 44
+ 1.12224 3 2 ack 40 ------- 1 3.1 1.0 26 61
- 1.12224 3 2 ack 40 ------- 1 3.1 1.0 26 61
r 1.13152 2 1 ack 40 ------- 1 3.1 1.0 25 59
r 1.13552 1 2 tcp 1040 ------- 1 1.0 3.1 28 48
+ 1.13552 2 3 tcp 1040 ------- 1 1.0 3.1 28 48
- 1.13552 2 3 tcp 1040 ------- 1 1.0 3.1 28 48
+ 1.1424 1 2 tcp 1040 ------- 1 1.0 3.1 35 62
r 1.14352 3 2 ack 40 ------- 1 3.1 1.0 26 61
+ 1.14352 2 1 ack 40 ------- 1 3.1 1.0 26 61
- 1.14352 2 1 ack 40 ------- 1 3.1 1.0 26 61
- 1.1488 1 2 tcp 1040 ------- 1 1.0 3.1 30 52
r 1.15552 2 3 tcp 1040 ------- 1 1.0 3.1 27 46
+ 1.15552 3 2 ack 40 ------- 1 3.1 1.0 27 63
- 1.15552 3 2 ack 40 ------- 1 3.1 1.0 27 63
r 1.1648 2 1 ack 40 ------- 1 3.1 1.0 26 61
r 1.1688 1 2 tcp 1040 ------- 1 1.0 3.1 29 50
+ 1.1688 2 3 tcp 1040 ------- 1 1.0 3.1 29 50
- 1.1688 2 3 tcp 1040 ------- 1 1.0 3.1 29 50
+ 1.176 1 2 tcp 1040 ------- 1 1.0 3.1 36 64
r 1.1768 3 2 ack 40 ------- 1 3.1 1.0 27 63
+ 1.1768 2 1 ack 40 ------- 1 3.1 1.0 27 63
- 1.1768 2 1 ack 40 ------- 1 3.1 1.0 27 63
- 1.18208 1 2 tcp 1040 ------- 1 1.0 3.1 31 54
r 1.1888 2 3 tcp 1040 ------- 1 1.0 3.1 28 48
+ 1.1888 3 2 ack 40 ------- 1 3.1 1.0 28 65
- 1.1888 3 2 ack 40 ------- 1 3.1 1.0 28 65
r 1.19808 2 1 ack 40 ------- 1 3.1 1.0 27 63
r 1.20208 1 2 tcp 1040 ------- 1 1.0 3.1 30 52
+ 1.20208 2 3 tcp 1040 ------- 1 1.0 3.1 30 52
- 1.20208 2 3 tcp 1040 ------- 1 1.0 3.1 30 52
+ 1.2096 1 2 tcp 1040 ------- 1 1.0 3.1 37 66
r 1.21008 3 2 ack 40 ------- 1 3.1 1.0 28 65
+ 1.21008 2 1 ack 40 ------- 1 3.1 1.0 28 65
- 1.21008 2 1 ack 40 ------- 1 3.1 1.0 28 65
- 1.21536 1 2 tcp 1040 ------- 1 1.0 3.1 32 56
r 1.22208 2 3 tcp 1040 ------- 1 1.0 3.1 29 50
+ 1.22208 3 2 ack 40 ------- 1 3.1 1.0 29 67
- 1.22208 3 2 ack 40 ------- 1 3.1 1.0 29 67
r 1.23136 2 1 ack 40 ------- 1 3.1 1.0 28 65
r 1.23536 1 2 tcp 1040 ------- 1 1.0 3.1 31 54
+ 1.23536 2 3 tcp 1040 ------- 1 1.0 3.1 31 54
- 1.23536 2 3 tcp 1040 ------- 1 1.0 3.1 31 54
+ 1.2432 1 2 tcp 1040 ------- 1 1.0 3.1 38 68
r 1.24336 3 2 ack 40 ------- 1 3.1 1.0 29 67
+ 1.24336 2 1 ack 40 ------- 1 3.1 1.0 29 67
- 1.24336 2 1 ack 40 ------- 1 3.1 1.0 29 67
- 1.24864 1 2 tcp 1040 ------- 1 1.0 3.1 33 58
r 1.25536 2 3 tcp 1040 ------- 1 1.0 3.1 30 52
+ 1.25536 3 2 ack 40 ------- 1 3.1 1.0 30 69
- 1.25536 3 2 ack 40 ------- 1 3.1 1.0 30 69
r 1.26464 2 1 ack 40 ------- 1 3.1 1.0 29 67
r 1.26864 1 2 tcp 1040 ------- 1 1.0 3.1 32 56
+ 1.26864 2 3 tcp 1040 ------- 1 1.0 3.1 32 56
- 1.26864 2 3 tcp 1040 ------- 1 1.0 3.1 32 56
r 1.27664 3 2 ack 40 ------- 1 3.1 1.0 30 69
+ 1.27664 2 1 ack 40 ------- 1 3.1 1.0 30 69
- 1.27664 2 1 ack 40 ------- 1 3.1 1.0 30 69
+ 1.2768 1 2 tcp 1040 ------- 1 1.0 3.1 39 70
- 1.28192 1 2 tcp 1040 ------- 1 1.0 3.1 34 60
r 1.28864 2 3 tcp 1040 ------- 1 1.0 3.1 31 54
+ 1.28864 3 2 ack 40 ------- 1 3.1 1.0 31 71
- 1.28864 3 2 ack 40 ------- 1 3.1 1.0 31 71
r 1.29792 2 1 ack 40 ------- 1 3.1 1.0 30 69
r 1.30192 1 2 tcp 1040 ------- 1 1.0 3.1 33 58
+ 1.30192 2 3 tcp 1040 ------- 1 1.0 3.1 33 58
- 1.30192 2 3 tcp 1040 ------- 1 1.0 3.1 33 58
r 1.30992 3 2 ack 40 ------- 1 3.1 1.0 31 71
+ 1.30992 2 1 ack 40 ------- 1 3.1 1.0 31 71
- 1.30992 2 1 ack 40 ------- 1 3.1 1.0 31 71
+ 1.3104 1 2 tcp 1040 ------- 1 1.0 3.1 40 72
- 1.3152 1 2 tcp 1040 ------- 1 1.0 3.1 35 62
r 1.32192 2 3 tcp 1040 ------- 1 1.0 3.1 32 56
+ 1.32192 3 2 ack 40 ------- 1 3.1 1.0 32 73
- 1.32192 3 2 ack 40 ------- 1 3.1 1.0 32 73
r 1.3312 2 1 ack 40 ------- 1 3.1 1.0 31 71
r 1.3352 1 2 tcp 1040 ------- 1 1.0 3.1 34 60
+ 1.3352 2 3 tcp 1040 ------- 1 1.0 3.1 34 60
- 1.3352 2 3 tcp 1040 ------- 1 1.0 3.1 34 60
r 1.3432 3 2 ack 40 ------- 1 3.1 1.0 32 73
+ 1.3432 2 1 ack 40 ------- 1 3.1 1.0 32 73
- 1.3432 2 1 ack 40 ------- 1 3.1 1.0 32 73
+ 1.344 1 2 tcp 1040 ------- 1 1.0 3.1 41 74
- 1.34848 1 2 tcp 1040 ------- 1 1.0 3.1 36 64
r 1.3552 2 3 tcp 1040 ------- 1 1.0 3.1 33 58
+ 1.3552 3 2 ack 40 ------- 1 3.1 1.0 33 75
- 1.3552 3 2 ack 40 ------- 1 3.1 1.0 33 75
r 1.36448 2 1 ack 40 ------- 1 3.1 1.0 32 73
r 1.36848 1 2 tcp 1040 ------- 1 1.0 3.1 35 62
+ 1.36848 2 3 tcp 1040 ------- 1 1.0 3.1 35 62
- 1.36848 2 3 tcp 1040 ------- 1 1.0 3.1 35 62
r 1.37648 3 2 ack 40 ------- 1 3.1 1.0 33 75
+ 1.37648 2 1 ack 40 ------- 1 3.1 1.0 33 75
- 1.37648 2 1 ack 40 ------- 1 3.1 1.0 33 75
+ 1.3776 1 2 tcp 1040 ------- 1 1.0 3.1 42 76
- 1.38176 1 2 tcp 1040 ------- 1 1.0 3.1 37 66
r 1.38848 2 3 tcp 1040 ------- 1 1.0 3.1 34 60
+ 1.38848 3 2 ack 40 ------- 1 3.1 1.0 34 77
- 1.38848 3 2 ack 40 ------- 1 3.1 1.0 34 77
r 1.39776 2 1 ack 40 ------- 1 3.1 1.0 33 75
r 1.40176 1 2 tcp 1040 ------- 1 1.0 3.1 36 64
+ 1.40176 2 3 tcp 1040 ------- 1 1.0 3.1 36 64
- 1.40176 2 3 tcp 1040 ------- 1 1.0 3.1 36 64
r 1.40976 3 2 ack 40 ------- 1 3.1 1.0 34 77
+ 1.40976 2 1 ack 40 ------- 1 3.1 1.0 34 77
- 1.40976 2 1 ack 40 ------- 1 3.1 1.0 34 77
+ 1.4112 1 2 tcp 1040 ------- 1 1.0 3.1 43 78
- 1.41504 1 2 tcp 1040 ------- 1 1.0 3.1 38 68
r 1.42176 2 3 tcp 1040 ------- 1 1.0 3.1 35 62
+ 1.42176 3 2 ack 40 ------- 1 3.1 1.0 35 79
- 1.42176 3 2 ack 40 ------- 1 3.1 1.0 35 79
r 1.43104 2 1 ack 40 ------- 1 3.1 1.0 34 77
r 1.43504 1 2 tcp 1040 ------- 1 1.0 3.1 37 66
+ 1.43504 2 3 tcp 1040 ------- 1 1.0 3.1 37 66
- 1.43504 2 3 tcp 1040 ------- 1 1.0 3.1 37 66
r 1.44304 3 2 ack 40 ------- 1 3.1 1.0 35 79
+ 1.44304 2 1 ack 40 ------- 1 3.1 1.0 35 79
- 1.44304 2 1 ack 40 ------- 1 3.1 1.0 35 79
+ 1.4448 1 2 tcp 1040 ------- 1 1.0 3.1 44 80
- 1.44832 1 2 tcp 1040 ------- 1 1.0 3.1 39 70
r 1.45504 2 3 tcp 1040 ------- 1 1.0 3.1 36 64
+ 1.45504 3 2 ack 40 ------- 1 3.1 1.0 36 81
- 1.45504 3 2 ack 40 ------- 1 3.1 1.0 36 81
r 1.46432 2 1 ack 40 ------- 1 3.1 1.0 35 79
r 1.46832 1 2 tcp 1040 ------- 1 1.0 3.1 38 68
+ 1.46832 2 3 tcp 1040 ------- 1 1.0 3.1 38 68
- 1.46832 2 3 tcp 1040 ------- 1 1.0 3.1 38 68
r 1.47632 3 2 ack 40 ------- 1 3.1 1.0 36 81
+ 1.47632 2 1 ack 40 ------- 1 3.1 1.0 36 81
- 1.47632 2 1 ack 40 ------- 1 3.1 1.0 36 81
+ 1.4784 1 2 tcp 1040 ------- 1 1.0 3.1 45 82
- 1.4816 1 2 tcp 1040 ------- 1 1.0 3.1 40 72
r 1.48832 2 3 tcp 1040 ------- 1 1.0 3.1 37 66
+ 1.48832 3 2 ack 40 ------- 1 3.1 1.0 37 83
- 1.48832 3 2 ack 40 ------- 1 3.1 1.0 37 83
r 1.4976 2 1 ack 40 ------- 1 3.1 1.0 36 81
r 1.5016 1 2 tcp 1040 ------- 1 1.0 3.1 39 70
+ 1.5016 2 3 tcp 1040 ------- 1 1.0 3.1 39 70
- 1.5016 2 3 tcp 1040 ------- 1 1.0 3.1 39 70
r 1.5096 3 2 ack 40 ------- 1 3.1 1.0 37 83
+ 1.5096 2 1 ack 40 ------- 1 3.1 1.0 37 83
- 1.5096 2 1 ack 40 ------- 1 3.1 1.0 37 83
+ 1.512 1 2 tcp 1040 ------- 1 1.0 3.1 46 84
- 1.51488 1 2 tcp 1040 ------- 1 1.0 3.1 41 74
r 1.5216 2 3 tcp 1040 ------- 1 1.0 3.1 38 68
+ 1.5216 3 2 ack 40 ------- 1 3.1 1.0 38 85
- 1.5216 3 2 ack 40 ------- 1 3.1 1.0 38 85
r 1.53088 2 1 ack 40 ------- 1 3.1 1.0 37 83
r 1.53488 1 2 tcp 1040 ------- 1 1.0 3.1 40 72
+ 1.53488 2 3 tcp 1040 ------- 1 1.0 3.1 40 72
- 1.53488 2 3 tcp 1040 ------- 1 1.0 3.1 40 72
r 1.54288 3 2 ack 40 ------- 1 3.1 1.0 38 85
+ 1.54288 2 1 ack 40 ------- 1 3.1 1.0 38 85
- 1.54288 2 1 ack 40 ------- 1 3.1 1.0 38 85
+ 1.5456 1 2 tcp 1040 ------- 1 1.0 3.1 47 86
- 1.54816 1 2 tcp 1040 ------- 1 1.0 3.1 42 76
r 1.55488 2 3 tcp 1040 ------- 1 1.0 3.1 39 70
+ 1.55488 3 2 ack 40 ------- 1 3.1 1.0 39 87
- 1.55488 3 2 ack 40 ------- 1 3.1 1.0 39 87
r 1.56416 2 1 ack 40 ------- 1 3.1 1.0 38 85
r 1.56816 1 2 tcp 1040 ------- 1 1.0 3.1 41 74
+ 1.56816 2 3 tcp 1040 ------- 1 1.0 3.1 41 74
- 1.56816 2 3 tcp 1040 ------- 1 1.0 3.1 41 74
r 1.57616 3 2 ack 40 ------- 1 3.1 1.0 39 87
+ 1.57616 2 1 ack 40 ------- 1 3.1 1.0 39 87
- 1.57616 2 1 ack 40 ------- 1 3.1 1.0 39 87
+ 1.5792 1 2 tcp 1040 ------- 1 1.0 3.1 48 88
- 1.58144 1 2 tcp 1040 ------- 1 1.0 3.1 43 78
r 1.58816 2 3 tcp 1040 ------- 1 1.0 3.1 40 72
+ 1.58816 3 2 ack 40 ------- 1 3.1 1.0 40 89
- 1.58816 3 2 ack 40 ------- 1 3.1 1.0 40 89
r 1.59744 2 1 ack 40 ------- 1 3.1 1.0 39 87
r 1.60144 1 2 tcp 1040 ------- 1 1.0 3.1 42 76
+ 1.60144 2 3 tcp 1040 ------- 1 1.0 3.1 42 76
- 1.60144 2 3 tcp 1040 ------- 1 1.0 3.1 42 76
r 1.60944 3 2 ack 40 ------- 1 3.1 1.0 40 89
+ 1.60944 2 1 ack 40 ------- 1 3.1 1.0 40 89
- 1.60944 2 1 ack 40 ------- 1 3.1 1.0 40 89
+ 1.6128 1 2 tcp 1040 ------- 1 1.0 3.1 49 90
- 1.61472 1 2 tcp 1040 ------- 1 1.0 3.1 44 80
r 1.62144 2 3 tcp 1040 ------- 1 1.0 3.1 41 74
+ 1.62144 3 2 ack 40 ------- 1 3.1 1.0 41 91
- 1.62144 3 2 ack 40 ------- 1 3.1 1.0 41 91
r 1.63072 2 1 ack 40 ------- 1 3.1 1.0 40 89
r 1.63472 1 2 tcp 1040 ------- 1 1.0 3.1 43 78
+ 1.63472 2 3 tcp 1040 ------- 1 1.0 3.1 43 78
- 1.63472 2 3 tcp 1040 ------- 1 1.0 3.1 43 78
r 1.64272 3 2 ack 40 ------- 1 3.1 1.0 41 91
+ 1.64272 2 1 ack 40 ------- 1 3.1 1.0 41 91
- 1.64272 2 1 ack 40 ------- 1 3.1 1.0 41 91
+ 1.6464 1 2 tcp 1040 ------- 1 1.0 3.1 50 92
- 1.648 1 2 tcp 1040 ------- 1 1.0 3.1 45 82
r 1.65472 2 3 tcp 1040 ------- 1 1.0 3.1 42 76
+ 1.65472 3 2 ack 40 ------- 1 3.1 1.0 42 93
- 1.65472 3 2 ack 40 ------- 1 3.1 1.0 42 93
r 1.664 2 1 ack 40 ------- 1 3.1 1.0 41 91
r 1.668 1 2 tcp 1040 ------- 1 1.0 3.1 44 80
+ 1.668 2 3 tcp 1040 ------- 1 1.0 3.1 44 80
- 1.668 2 3 tcp 1040 ------- 1 1.0 3.1 44 80
r 1.676 3 2 ack 40 ------- 1 3.1 1.0 42 93
+ 1.676 2 1 ack 40 ------- 1 3.1 1.0 42 93
- 1.676 2 1 ack 40 ------- 1 3.1 1.0 42 93
+ 1.68 1 2 tcp 1040 ------- 1 1.0 3.1 51 94
- 1.68128 1 2 tcp 1040 ------- 1 1.0 3.1 46 84
r 1.688 2 3 tcp 1040 ------- 1 1.0 3.1 43 78
+ 1.688 3 2 ack 40 ------- 1 3.1 1.0 43 95
- 1.688 3 2 ack 40 ------- 1 3.1 1.0 43 95
r 1.69728 2 1 ack 40 ------- 1 3.1 1.0 42 93
r 1.70128 1 2 tcp 1040 ------- 1 1.0 3.1 45 82
+ 1.70128 2 3 tcp 1040 ------- 1 1.0 3.1 45 82
- 1.70128 2 3 tcp 1040 ------- 1 1.0 3.1 45 82
r 1.70928 3 2 ack 40 ------- 1 3.1 1.0 43 95
+ 1.70928 2 1 ack 40 ------- 1 3.1 1.0 43 95
- 1.70928 2 1 ack 40 ------- 1 3.1 1.0 43 95
+ 1.7136 1 2 tcp 1040 ------- 1 1.0 3.1 52 96
- 1.71456 1 2 tcp 1040 ------- 1 1.0 3.1 47 86
r 1.72128 2 3 tcp 1040 ------- 1 1.0 3.1 44 80
+ 1.72128 3 2 ack 40 ------- 1 3.1 1.0 44 97
- 1.72128 3 2 ack 40 ------- 1 3.1 1.0 44 97
r 1.73056 2 1 ack 40 ------- 1 3.1 1.0 43 95
r 1.73456 1 2 tcp 1040 ------- 1 1.0 3.1 46 84
+ 1.73456 2 3 tcp 1040 ------- 1 1.0 3.1 46 84
- 1.73456 2 3 tcp 1040 ------- 1 1.0 3.1 46 84
r 1.74256 3 2 ack 40 ------- 1 3.1 1.0 44 97
+ 1.74256 2 1 ack 40 ------- 1 3.1 1.0 44 97
- 1.74256 2 1 ack 40 ------- 1 3.1 1.0 44 97
+ 1.7472 1 2 tcp 1040 ------- 1 1.0 3.1 53 98
- 1.74784 1 2 tcp 1040 ------- 1 1.0 3.1 48 88
r 1.75456 2 3 tcp 1040 ------- 1 1.0 3.1 45 82
+ 1.75456 3 2 ack 40 ------- 1 3.1 1.0 45 99
- 1.75456 3 2 ack 40 ------- 1 3.1 1.0 45 99
r 1.76384 2 1 ack 40 ------- 1 3.1 1.0 44 97
r 1.76784 1 2 tcp 1040 ------- 1 1.0 3.1 47 86
+ 1.76784 2 3 tcp 1040 ------- 1 1.0 3.1 47 86
- 1.76784 2 3 tcp 1040 ------- 1 1.0 3.1 47 86
r 1.77584 3 2 ack 40 ------- 1 3.1 1.0 45 99
+ 1.77584 2 1 ack 40 ------- 1 3.1 1.0 45 99
- 1.77584 2 1 ack 40 ------- 1 3.1 1.0 45 99
+ 1.7808 1 2 tcp 1040 ------- 1 1.0 3.1 54 100
- 1.78112 1 2 tcp 1040 ------- 1 1.0 3.1 49 90
r 1.78784 2 3 tcp 1040 ------- 1 1.0 3.1 46 84
+ 1.78784 3 2 ack 40 ------- 1 3.1 1.0 46 101
- 1.78784 3 2 ack 40 ------- 1 3.1 1.0 46 101
r 1.79712 2 1 ack 40 ------- 1 3.1 1.0 45 99
r 1.80112 1 2 tcp 1040 ------- 1 1.0 3.1 48 88
+ 1.80112 2 3 tcp 1040 ------- 1 1.0 3.1 48 88
- 1.80112 2 3 tcp 1040 ------- 1 1.0 3.1 48 88
r 1.80912 3 2 ack 40 ------- 1 3.1 1.0 46 101
+ 1.80912 2 1 ack 40 ------- 1 3.1 1.0 46 101
- 1.80912 2 1 ack 40 ------- 1 3.1 1.0 46 101
- 1.8144 1 2 tcp 1040 ------- 1 1.0 3.1 50 92
+ 1.8144 1 2 tcp 1040 ------- 1 1.0 3.1 55 102
r 1.82112 2 3 tcp 1040 ------- 1 1.0 3.1 47 86
+ 1.82112 3 2 ack 40 ------- 1 3.1 1.0 47 103
- 1.82112 3 2 ack 40 ------- 1 3.1 1.0 47 103
r 1.8304 2 1 ack 40 ------- 1 3.1 1.0 46 101
r 1.8344 1 2 tcp 1040 ------- 1 1.0 3.1 49 90
+ 1.8344 2 3 tcp 1040 ------- 1 1.0 3.1 49 90
- 1.8344 2 3 tcp 1040 ------- 1 1.0 3.1 49 90
r 1.8424 3 2 ack 40 ------- 1 3.1 1.0 47 103
+ 1.8424 2 1 ack 40 ------- 1 3.1 1.0 47 103
- 1.8424 2 1 ack 40 ------- 1 3.1 1.0 47 103
- 1.84768 1 2 tcp 1040 ------- 1 1.0 3.1 51 94
+ 1.848 1 2 tcp 1040 ------- 1 1.0 3.1 56 104
r 1.8544 2 3 tcp 1040 ------- 1 1.0 3.1 48 88
+ 1.8544 3 2 ack 40 ------- 1 3.1 1.0 48 105
- 1.8544 3 2 ack 40 ------- 1 3.1 1.0 48 105
r 1.86368 2 1 ack 40 ------- 1 3.1 1.0 47 103
r 1.86768 1 2 tcp 1040 ------- 1 1.0 3.1 50 92
+ 1.86768 2 3 tcp 1040 ------- 1 1.0 3.1 50 92
- 1.86768 2 3 tcp 1040 ------- 1 1.0 3.1 50 92
r 1.87568 3 2 ack 40 ------- 1 3.1 1.0 48 105
+ 1.87568 2 1 ack 40 ------- 1 3.1 1.0 48 105
- 1.87568 2 1 ack 40 ------- 1 3.1 1.0 48 105
- 1.88096 1 2 tcp 1040 ------- 1 1.0 3.1 52 96
+ 1.8816 1 2 tcp 1040 ------- 1 1.0 3.1 57 106
r 1.88768 2 3 tcp 1040 ------- 1 1.0 3.1 49 90
+ 1.88768 3 2 ack 40 ------- 1 3.1 1.0 49 107
- 1.88768 3 2 ack 40 ------- 1 3.1 1.0 49 107
r 1.89696 2 1 ack 40 ------- 1 3.1 1.0 48 105
r 1.90096 1 2 tcp 1040 ------- 1 1.0 3.1 51 94
+ 1.90096 2 3 tcp 1040 ------- 1 1.0 3.1 51 94
- 1.90096 2 3 tcp 1040 ------- 1 1.0 3.1 51 94
r 1.90896 3 2 ack 40 ------- 1 3.1 1.0 49 107
+ 1.90896 2 1 ack 40 ------- 1 3.1 1.0 49 107
- 1.90896 2 1 ack 40 ------- 1 3.1 1.0 49 107
- 1.91424 1 2 tcp 1040 ------- 1 1.0 3.1 53 98
+ 1.9152 1 2 tcp 1040 ------- 1 1.0 3.1 58 108
r 1.92096 2 3 tcp 1040 ------- 1 1.0 3.1 50 92
+ 1.92096 3 2 ack 40 ------- 1 3.1 1.0 50 109
- 1.92096 3 2 ack 40 ------- 1 3.1 1.0 50 109
r 1.93024 2 1 ack 40 ------- 1 3.1 1.0 49 107
r 1.93424 1 2 tcp 1040 ------- 1 1.0 3.1 52 96
+ 1.93424 2 3 tcp 1040 ------- 1 1.0 3.1 52 96
- 1.93424 2 3 tcp 1040 ------- 1 1.0 3.1 52 96
r 1.94224 3 2 ack 40 ------- 1 3.1 1.0 50 109
+ 1.94224 2 1 ack 40 ------- 1 3.1 1.0 50 109
- 1.94224 2 1 ack 40 ------- 1 3.1 1.0 50 109
- 1.94752 1 2 tcp 1040 ------- 1 1.0 3.1 54 100
+ 1.9488 1 2 tcp 1040 ------- 1 1.0 3.1 59 110
r 1.95424 2 3 tcp 1040 ------- 1 1.0 3.1 51 94
+ 1.95424 3 2 ack 40 ------- 1 3.1 1.0 51 111
- 1.95424 3 2 ack 40 ------- 1 3.1 1.0 51 111
r 1.96352 2 1 ack 40 ------- 1 3.1 1.0 50 109
r 1.96752 1 2 tcp 1040 ------- 1 1.0 3.1 53 98
+ 1.96752 2 3 tcp 1040 ------- 1 1.0 3.1 53 98
- 1.96752 2 3 tcp 1040 ------- 1 1.0 3.1 53 98
r 1.97552 3 2 ack 40 ------- 1 3.1 1.0 51 111
+ 1.97552 2 1 ack 40 ------- 1 3.1 1.0 51 111
- 1.97552 2 1 ack 40 ------- 1 3.1 1.0 51 111
- 1.9808 1 2 tcp 1040 ------- 1 1.0 3.1 55 102
+ 1.9824 1 2 tcp 1040 ------- 1 1.0 3.1 60 112
r 1.98752 2 3 tcp 1040 ------- 1 1.0 3.1 52 96
+ 1.98752 3 2 ack 40 ------- 1 3.1 1.0 52 113
- 1.98752 3 2 ack 40 ------- 1 3.1 1.0 52 113
r 1.9968 2 1 ack 40 ------- 1 3.1 1.0 51 111
r 2.0008 1 2 tcp 1040 ------- 1 1.0 3.1 54 100
+ 2.0008 2 3 tcp 1040 ------- 1 1.0 3.1 54 100
- 2.0008 2 3 tcp 1040 ------- 1 1.0 3.1 54 100
r 2.0088 3 2 ack 40 ------- 1 3.1 1.0 52 113
+ 2.0088 2 1 ack 40 ------- 1 3.1 1.0 52 113
- 2.0088 2 1 ack 40 ------- 1 3.1 1.0 52 113
- 2.01408 1 2 tcp 1040 ------- 1 1.0 3.1 56 104
+ 2.016 1 2 tcp 1040 ------- 1 1.0 3.1 61 114
r 2.0208 2 3 tcp 1040 ------- 1 1.0 3.1 53 98
+ 2.0208 3 2 ack 40 ------- 1 3.1 1.0 53 115
- 2.0208 3 2 ack 40 ------- 1 3.1 1.0 53 115
r 2.03008 2 1 ack 40 ------- 1 3.1 1.0 52 113
r 2.03408 1 2 tcp 1040 ------- 1 1.0 3.1 55 102