+ 0 1 2 tcp 40 ------- 1 1.0 3.1 0 0
- 0 1 2 tcp 40 ------- 1 1.0 3.1 0 0
r 0.02128 1 2 tcp 40 ------- 1 1.0 3.1 0 0
+ 0.02128 2 3 tcp 40 ------- 1 1.0 3.1 0 0
- 0.02128 2 3 tcp 40 ------- 1 1.0 3.1 0 0
r 0.52768 2 3 tcp 40 ------- 1 1.0 3.1 0 0
+ 0.52768 3 2 ack 40 ------- 1 3.1 1.0 0 1
- 0.52768 3 2 ack 40 ------- 1 3.1 1.0 0 1
r 1.03408 3 2 ack 40 ------- 1 3.1 1.0 0 1
+ 1.03408 2 1 ack 40 ------- 1 3.1 1.0 0 1
- 1.03408 2 1 ack 40 ------- 1 3.1 1.0 0 1
r 1.05536 2 1 ack 40 ------- 1 3.1 1.0 0 1
+ 1.05536 1 2 tcp 1000 ------- 1 1.0 3.1 1 2
- 1.05536 1 2 tcp 1000 ------- 1 1.0 3.1 1 2
+ 1.05536 1 2 tcp 1000 ------- 1 1.0 3.1 2 3
- 1.08736 1 2 tcp 1000 ------- 1 1.0 3.1 2 3
r 1.10736 1 2 tcp 1000 ------- 1 1.0 3.1 1 2
+ 1.10736 2 3 tcp 1000 ------- 1 1.0 3.1 1 2
- 1.10736 2 3 tcp 1000 ------- 1 1.0 3.1 1 2
r 1.13936 1 2 tcp 1000 ------- 1 1.0 3.1 2 3
+ 1.13936 2 3 tcp 1000 ------- 1 1.0 3.1 2 3
- 1.26736 2 3 tcp 1000 ------- 1 1.0 3.1 2 3
r 1.76736 2 3 tcp 1000 ------- 1 1.0 3.1 1 2
+ 1.76736 3 2 ack 40 ------- 1 3.1 1.0 1 4
- 1.76736 3 2 ack 40 ------- 1 3.1 1.0 1 4
r 1.92736 2 3 tcp 1000 ------- 1 1.0 3.1 2 3
+ 1.92736 3 2 ack 40 ------- 1 3.1 1.0 2 5
- 1.92736 3 2 ack 40 ------- 1 3.1 1.0 2 5
r 2.27376 3 2 ack 40 ------- 1 3.1 1.0 1 4
+ 2.27376 2 1 ack 40 ------- 1 3.1 1.0 1 4
- 2.27376 2 1 ack 40 ------- 1 3.1 1.0 1 4
r 2.29504 2 1 ack 40 ------- 1 3.1 1.0 1 4
+ 2.29504 1 2 tcp 1000 ------- 1 1.0 3.1 3 6
- 2.29504 1 2 tcp 1000 ------- 1 1.0 3.1 3 6
+ 2.29504 1 2 tcp 1000 ------- 1 1.0 3.1 4 7
- 2.32704 1 2 tcp 1000 ------- 1 1.0 3.1 4 7
r 2.34704 1 2 tcp 1000 ------- 1 1.0 3.1 3 6
+ 2.34704 2 3 tcp 1000 ------- 1 1.0 3.1 3 6
- 2.34704 2 3 tcp 1000 ------- 1 1.0 3.1 3 6
r 2.37904 1 2 tcp 1000 ------- 1 1.0 3.1 4 7
+ 2.37904 2 3 tcp 1000 ------- 1 1.0 3.1 4 7
r 2.43376 3 2 ack 40 ------- 1 3.1 1.0 2 5
+ 2.43376 2 1 ack 40 ------- 1 3.1 1.0 2 5
- 2.43376 2 1 ack 40 ------- 1 3.1 1.0 2 5
r 2.45504 2 1 ack 40 ------- 1 3.1 1.0 2 5
+ 2.45504 1 2 tcp 1000 ------- 1 1.0 3.1 5 8
- 2.45504 1 2 tcp 1000 ------- 1 1.0 3.1 5 8
+ 2.45504 1 2 tcp 1000 ------- 1 1.0 3.1 6 9
- 2.48704 1 2 tcp 1000 ------- 1 1.0 3.1 6 9
r 2.50704 1 2 tcp 1000 ------- 1 1.0 3.1 5 8
+ 2.50704 2 3 tcp 1000 ------- 1 1.0 3.1 5 8
- 2.50704 2 3 tcp 1000 ------- 1 1.0 3.1 4 7
r 2.53904 1 2 tcp 1000 ------- 1 1.0 3.1 6 9
+ 2.53904 2 3 tcp 1000 ------- 1 1.0 3.1 6 9
- 2.66704 2 3 tcp 1000 ------- 1 1.0 3.1 5 8
- 2.82704 2 3 tcp 1000 ------- 1 1.0 3.1 6 9
r 3.00704 2 3 tcp 1000 ------- 1 1.0 3.1 3 6
+ 3.00704 3 2 ack 40 ------- 1 3.1 1.0 3 10
- 3.00704 3 2 ack 40 ------- 1 3.1 1.0 3 10
r 3.16704 2 3 tcp 1000 ------- 1 1.0 3.1 4 7
+ 3.16704 3 2 ack 40 ------- 1 3.1 1.0 4 11
- 3.16704 3 2 ack 40 ------- 1 3.1 1.0 4 11
r 3.32704 2 3 tcp 1000 ------- 1 1.0 3.1 5 8
+ 3.32704 3 2 ack 40 ------- 1 3.1 1.0 5 12
- 3.32704 3 2 ack 40 ------- 1 3.1 1.0 5 12
r 3.48704 2 3 tcp 1000 ------- 1 1.0 3.1 6 9
+ 3.48704 3 2 ack 40 ------- 1 3.1 1.0 6 13
- 3.48704 3 2 ack 40 ------- 1 3.1 1.0 6 13
r 3.51344 3 2 ack 40 ------- 1 3.1 1.0 3 10
+ 3.51344 2 1 ack 40 ------- 1 3.1 1.0 3 10
- 3.51344 2 1 ack 40 ------- 1 3.1 1.0 3 10
r 3.53472 2 1 ack 40 ------- 1 3.1 1.0 3 10
+ 3.53472 1 2 tcp 1000 ------- 1 1.0 3.1 7 14
- 3.53472 1 2 tcp 1000 ------- 1 1.0 3.1 7 14
+ 3.53472 1 2 tcp 1000 ------- 1 1.0 3.1 8 15
- 3.56672 1 2 tcp 1000 ------- 1 1.0 3.1 8 15
r 3.58672 1 2 tcp 1000 ------- 1 1.0 3.1 7 14
+ 3.58672 2 3 tcp 1000 ------- 1 1.0 3.1 7 14
- 3.58672 2 3 tcp 1000 ------- 1 1.0 3.1 7 14
r 3.61872 1 2 tcp 1000 ------- 1 1.0 3.1 8 15
+ 3.61872 2 3 tcp 1000 ------- 1 1.0 3.1 8 15
r 3.67344 3 2 ack 40 ------- 1 3.1 1.0 4 11
+ 3.67344 2 1 ack 40 ------- 1 3.1 1.0 4 11
- 3.67344 2 1 ack 40 ------- 1 3.1 1.0 4 11
r 3.69472 2 1 ack 40 ------- 1 3.1 1.0 4 11
+ 3.69472 1 2 tcp 1000 ------- 1 1.0 3.1 9 16
- 3.69472 1 2 tcp 1000 ------- 1 1.0 3.1 9 16
+ 3.69472 1 2 tcp 1000 ------- 1 1.0 3.1 10 17
- 3.72672 1 2 tcp 1000 ------- 1 1.0 3.1 10 17
- 3.74672 2 3 tcp 1000 ------- 1 1.0 3.1 8 15
r 3.74672 1 2 tcp 1000 ------- 1 1.0 3.1 9 16
+ 3.74672 2 3 tcp 1000 ------- 1 1.0 3.1 9 16
r 3.77872 1 2 tcp 1000 ------- 1 1.0 3.1 10 17
+ 3.77872 2 3 tcp 1000 ------- 1 1.0 3.1 10 17
r 3.83344 3 2 ack 40 ------- 1 3.1 1.0 5 12
+ 3.83344 2 1 ack 40 ------- 1 3.1 1.0 5 12
- 3.83344 2 1 ack 40 ------- 1 3.1 1.0 5 12
r 3.85472 2 1 ack 40 ------- 1 3.1 1.0 5 12
+ 3.85472 1 2 tcp 1000 ------- 1 1.0 3.1 11 18
- 3.85472 1 2 tcp 1000 ------- 1 1.0 3.1 11 18
+ 3.85472 1 2 tcp 1000 ------- 1 1.0 3.1 12 19
- 3.88672 1 2 tcp 1000 ------- 1 1.0 3.1 12 19
- 3.90672 2 3 tcp 1000 ------- 1 1.0 3.1 9 16
r 3.90672 1 2 tcp 1000 ------- 1 1.0 3.1 11 18
+ 3.90672 2 3 tcp 1000 ------- 1 1.0 3.1 11 18
r 3.93872 1 2 tcp 1000 ------- 1 1.0 3.1 12 19
+ 3.93872 2 3 tcp 1000 ------- 1 1.0 3.1 12 19
r 3.99344 3 2 ack 40 ------- 1 3.1 1.0 6 13
+ 3.99344 2 1 ack 40 ------- 1 3.1 1.0 6 13
- 3.99344 2 1 ack 40 ------- 1 3.1 1.0 6 13
r 4.01472 2 1 ack 40 ------- 1 3.1 1.0 6 13
+ 4.01472 1 2 tcp 1000 ------- 1 1.0 3.1 13 20
- 4.01472 1 2 tcp 1000 ------- 1 1.0 3.1 13 20
+ 4.01472 1 2 tcp 1000 ------- 1 1.0 3.1 14 21
- 4.04672 1 2 tcp 1000 ------- 1 1.0 3.1 14 21
- 4.06672 2 3 tcp 1000 ------- 1 1.0 3.1 10 17
r 4.06672 1 2 tcp 1000 ------- 1 1.0 3.1 13 20
+ 4.06672 2 3 tcp 1000 ------- 1 1.0 3.1 13 20
r 4.09872 1 2 tcp 1000 ------- 1 1.0 3.1 14 21
+ 4.09872 2 3 tcp 1000 ------- 1 1.0 3.1 14 21
- 4.22672 2 3 tcp 1000 ------- 1 1.0 3.1 11 18
r 4.24672 2 3 tcp 1000 ------- 1 1.0 3.1 7 14
+ 4.24672 3 2 ack 40 ------- 1 3.1 1.0 7 22
- 4.24672 3 2 ack 40 ------- 1 3.1 1.0 7 22
- 4.38672 2 3 tcp 1000 ------- 1 1.0 3.1 12 19
r 4.40672 2 3 tcp 1000 ------- 1 1.0 3.1 8 15
+ 4.40672 3 2 ack 40 ------- 1 3.1 1.0 8 23
- 4.40672 3 2 ack 40 ------- 1 3.1 1.0 8 23
- 4.54672 2 3 tcp 1000 ------- 1 1.0 3.1 13 20
r 4.56672 2 3 tcp 1000 ------- 1 1.0 3.1 9 16
+ 4.56672 3 2 ack 40 ------- 1 3.1 1.0 9 24
- 4.56672 3 2 ack 40 ------- 1 3.1 1.0 9 24
- 4.70672 2 3 tcp 1000 ------- 1 1.0 3.1 14 21
r 4.72672 2 3 tcp 1000 ------- 1 1.0 3.1 10 17
+ 4.72672 3 2 ack 40 ------- 1 3.1 1.0 10 25
- 4.72672 3 2 ack 40 ------- 1 3.1 1.0 10 25
r 4.75312 3 2 ack 40 ------- 1 3.1 1.0 7 22
+ 4.75312 2 1 ack 40 ------- 1 3.1 1.0 7 22
- 4.75312 2 1 ack 40 ------- 1 3.1 1.0 7 22
r 4.7744 2 1 ack 40 ------- 1 3.1 1.0 7 22
+ 4.7744 1 2 tcp 1000 ------- 1 1.0 3.1 15 26
- 4.7744 1 2 tcp 1000 ------- 1 1.0 3.1 15 26
+ 4.7744 1 2 tcp 1000 ------- 1 1.0 3.1 16 27
- 4.8064 1 2 tcp 1000 ------- 1 1.0 3.1 16 27
r 4.8264 1 2 tcp 1000 ------- 1 1.0 3.1 15 26
+ 4.8264 2 3 tcp 1000 ------- 1 1.0 3.1 15 26
r 4.8584 1 2 tcp 1000 ------- 1 1.0 3.1 16 27
+ 4.8584 2 3 tcp 1000 ------- 1 1.0 3.1 16 27
- 4.86672 2 3 tcp 1000 ------- 1 1.0 3.1 15 26
r 4.88672 2 3 tcp 1000 ------- 1 1.0 3.1 11 18
+ 4.88672 3 2 ack 40 ------- 1 3.1 1.0 11 28
- 4.88672 3 2 ack 40 ------- 1 3.1 1.0 11 28
r 4.91312 3 2 ack 40 ------- 1 3.1 1.0 8 23
+ 4.91312 2 1 ack 40 ------- 1 3.1 1.0 8 23
- 4.91312 2 1 ack 40 ------- 1 3.1 1.0 8 23
r 4.9344 2 1 ack 40 ------- 1 3.1 1.0 8 23
+ 4.9344 1 2 tcp 1000 ------- 1 1.0 3.1 17 29
- 4.9344 1 2 tcp 1000 ------- 1 1.0 3.1 17 29
+ 4.9344 1 2 tcp 1000 ------- 1 1.0 3.1 18 30
- 4.9664 1 2 tcp 1000 ------- 1 1.0 3.1 18 30
r 4.9864 1 2 tcp 1000 ------- 1 1.0 3.1 17 29
+ 4.9864 2 3 tcp 1000 ------- 1 1.0 3.1 17 29
r 5.0184 1 2 tcp 1000 ------- 1 1.0 3.1 18 30
+ 5.0184 2 3 tcp 1000 ------- 1 1.0 3.1 18 30
- 5.02672 2 3 tcp 1000 ------- 1 1.0 3.1 16 27
r 5.04672 2 3 tcp 1000 ------- 1 1.0 3.1 12 19
+ 5.04672 3 2 ack 40 ------- 1 3.1 1.0 12 31
- 5.04672 3 2 ack 40 ------- 1 3.1 1.0 12 31
r 5.07312 3 2 ack 40 ------- 1 3.1 1.0 9 24
+ 5.07312 2 1 ack 40 ------- 1 3.1 1.0 9 24
- 5.07312 2 1 ack 40 ------- 1 3.1 1.0 9 24
r 5.0944 2 1 ack 40 ------- 1 3.1 1.0 9 24
+ 5.0944 1 2 tcp 1000 ------- 1 1.0 3.1 19 32
- 5.0944 1 2 tcp 1000 ------- 1 1.0 3.1 19 32
+ 5.0944 1 2 tcp 1000 ------- 1 1.0 3.1 20 33
- 5.1264 1 2 tcp 1000 ------- 1 1.0 3.1 20 33
r 5.1464 1 2 tcp 1000 ------- 1 1.0 3.1 19 32
+ 5.1464 2 3 tcp 1000 ------- 1 1.0 3.1 19 32
r 5.1784 1 2 tcp 1000 ------- 1 1.0 3.1 20 33
+ 5.1784 2 3 tcp 1000 ------- 1 1.0 3.1 20 33
- 5.18672 2 3 tcp 1000 ------- 1 1.0 3.1 17 29
r 5.20672 2 3 tcp 1000 ------- 1 1.0 3.1 13 20
+ 5.20672 3 2 ack 40 ------- 1 3.1 1.0 13 34
- 5.20672 3 2 ack 40 ------- 1 3.1 1.0 13 34
r 5.23312 3 2 ack 40 ------- 1 3.1 1.0 10 25
+ 5.23312 2 1 ack 40 ------- 1 3.1 1.0 10 25
- 5.23312 2 1 ack 40 ------- 1 3.1 1.0 10 25
r 5.2544 2 1 ack 40 ------- 1 3.1 1.0 10 25
+ 5.2544 1 2 tcp 1000 ------- 1 1.0 3.1 21 35
- 5.2544 1 2 tcp 1000 ------- 1 1.0 3.1 21 35
+ 5.2544 1 2 tcp 1000 ------- 1 1.0 3.1 22 36
- 5.2864 1 2 tcp 1000 ------- 1 1.0 3.1 22 36
r 5.3064 1 2 tcp 1000 ------- 1 1.0 3.1 21 35
+ 5.3064 2 3 tcp 1000 ------- 1 1.0 3.1 21 35
r 5.3384 1 2 tcp 1000 ------- 1 1.0 3.1 22 36
+ 5.3384 2 3 tcp 1000 ------- 1 1.0 3.1 22 36
- 5.34672 2 3 tcp 1000 ------- 1 1.0 3.1 18 30
r 5.36672 2 3 tcp 1000 ------- 1 1.0 3.1 14 21
+ 5.36672 3 2 ack 40 ------- 1 3.1 1.0 14 37
- 5.36672 3 2 ack 40 ------- 1 3.1 1.0 14 37
r 5.39312 3 2 ack 40 ------- 1 3.1 1.0 11 28
+ 5.39312 2 1 ack 40 ------- 1 3.1 1.0 11 28
- 5.39312 2 1 ack 40 ------- 1 3.1 1.0 11 28
r 5.4144 2 1 ack 40 ------- 1 3.1 1.0 11 28
+ 5.4144 1 2 tcp 1000 ------- 1 1.0 3.1 23 38
- 5.4144 1 2 tcp 1000 ------- 1 1.0 3.1 23 38
+ 5.4144 1 2 tcp 1000 ------- 1 1.0 3.1 24 39
- 5.4464 1 2 tcp 1000 ------- 1 1.0 3.1 24 39
r 5.4664 1 2 tcp 1000 ------- 1 1.0 3.1 23 38
+ 5.4664 2 3 tcp 1000 ------- 1 1.0 3.1 23 38
r 5.4984 1 2 tcp 1000 ------- 1 1.0 3.1 24 39
+ 5.4984 2 3 tcp 1000 ------- 1 1.0 3.1 24 39
- 5.50672 2 3 tcp 1000 ------- 1 1.0 3.1 19 32
r 5.52672 2 3 tcp 1000 ------- 1 1.0 3.1 15 26
+ 5.52672 3 2 ack 40 ------- 1 3.1 1.0 15 40
- 5.52672 3 2 ack 40 ------- 1 3.1 1.0 15 40
r 5.55312 3 2 ack 40 ------- 1 3.1 1.0 12 31
+ 5.55312 2 1 ack 40 ------- 1 3.1 1.0 12 31
- 5.55312 2 1 ack 40 ------- 1 3.1 1.0 12 31
r 5.5744 2 1 ack 40 ------- 1 3.1 1.0 12 31
+ 5.5744 1 2 tcp 1000 ------- 1 1.0 3.1 25 41
- 5.5744 1 2 tcp 1000 ------- 1 1.0 3.1 25 41
+ 5.5744 1 2 tcp 1000 ------- 1 1.0 3.1 26 42
- 5.6064 1 2 tcp 1000 ------- 1 1.0 3.1 26 42
r 5.6264 1 2 tcp 1000 ------- 1 1.0 3.1 25 41
+ 5.6264 2 3 tcp 1000 ------- 1 1.0 3.1 25 41
r 5.6584 1 2 tcp 1000 ------- 1 1.0 3.1 26 42
+ 5.6584 2 3 tcp 1000 ------- 1 1.0 3.1 26 42
- 5.66672 2 3 tcp 1000 ------- 1 1.0 3.1 20 33
r 5.68672 2 3 tcp 1000 ------- 1 1.0 3.1 16 27
+ 5.68672 3 2 ack 40 ------- 1 3.1 1.0 16 43
- 5.68672 3 2 ack 40 ------- 1 3.1 1.0 16 43
r 5.71312 3 2 ack 40 ------- 1 3.1 1.0 13 34
+ 5.71312 2 1 ack 40 ------- 1 3.1 1.0 13 34
- 5.71312 2 1 ack 40 ------- 1 3.1 1.0 13 34
r 5.7344 2 1 ack 40 ------- 1 3.1 1.0 13 34
+ 5.7344 1 2 tcp 1000 ------- 1 1.0 3.1 27 44
- 5.7344 1 2 tcp 1000 ------- 1 1.0 3.1 27 44
+ 5.7344 1 2 tcp 1000 ------- 1 1.0 3.1 28 45
- 5.7664 1 2 tcp 1000 ------- 1 1.0 3.1 28 45
r 5.7864 1 2 tcp 1000 ------- 1 1.0 3.1 27 44
+ 5.7864 2 3 tcp 1000 ------- 1 1.0 3.1 27 44
r 5.8184 1 2 tcp 1000 ------- 1 1.0 3.1 28 45
+ 5.8184 2 3 tcp 1000 ------- 1 1.0 3.1 28 45
- 5.82672 2 3 tcp 1000 ------- 1 1.0 3.1 21 35
r 5.84672 2 3 tcp 1000 ------- 1 1.0 3.1 17 29
+ 5.84672 3 2 ack 40 ------- 1 3.1 1.0 17 46
- 5.84672 3 2 ack 40 ------- 1 3.1 1.0 17 46
r 5.87312 3 2 ack 40 ------- 1 3.1 1.0 14 37
+ 5.87312 2 1 ack 40 ------- 1 3.1 1.0 14 37
- 5.87312 2 1 ack 40 ------- 1 3.1 1.0 14 37
r 5.8944 2 1 ack 40 ------- 1 3.1 1.0 14 37
+ 5.8944 1 2 tcp 1000 ------- 1 1.0 3.1 29 47
- 5.8944 1 2 tcp 1000 ------- 1 1.0 3.1 29 47
+ 5.8944 1 2 tcp 1000 ------- 1 1.0 3.1 30 48
- 5.9264 1 2 tcp 1000 ------- 1 1.0 3.1 30 48
r 5.9464 1 2 tcp 1000 ------- 1 1.0 3.1 29 47
+ 5.9464 2 3 tcp 1000 ------- 1 1.0 3.1 29 47
r 5.9784 1 2 tcp 1000 ------- 1 1.0 3.1 30 48
+ 5.9784 2 3 tcp 1000 ------- 1 1.0 3.1 30 48
- 5.98672 2 3 tcp 1000 ------- 1 1.0 3.1 22 36
r 6.00672 2 3 tcp 1000 ------- 1 1.0 3.1 18 30
+ 6.00672 3 2 ack 40 ------- 1 3.1 1.0 18 49
- 6.00672 3 2 ack 40 ------- 1 3.1 1.0 18 49
r 6.03312 3 2 ack 40 ------- 1 3.1 1.0 15 40
+ 6.03312 2 1 ack 40 ------- 1 3.1 1.0 15 40
- 6.03312 2 1 ack 40 ------- 1 3.1 1.0 15 40
r 6.0544 2 1 ack 40 ------- 1 3.1 1.0 15 40
+ 6.0544 1 2 tcp 1000 ------- 1 1.0 3.1 31 50
- 6.0544 1 2 tcp 1000 ------- 1 1.0 3.1 31 50
+ 6.0544 1 2 tcp 1000 ------- 1 1.0 3.1 32 51
- 6.0864 1 2 tcp 1000 ------- 1 1.0 3.1 32 51
r 6.1064 1 2 tcp 1000 ------- 1 1.0 3.1 31 50
+ 6.1064 2 3 tcp 1000 ------- 1 1.0 3.1 31 50
r 6.1384 1 2 tcp 1000 ------- 1 1.0 3.1 32 51
+ 6.1384 2 3 tcp 1000 ------- 1 1.0 3.1 32 51
- 6.14672 2 3 tcp 1000 ------- 1 1.0 3.1 23 38
r 6.16672 2 3 tcp 1000 ------- 1 1.0 3.1 19 32
+ 6.16672 3 2 ack 40 ------- 1 3.1 1.0 19 52
- 6.16672 3 2 ack 40 ------- 1 3.1 1.0 19 52
r 6.19312 3 2 ack 40 ------- 1 3.1 1.0 16 43
+ 6.19312 2 1 ack 40 ------- 1 3.1 1.0 16 43
- 6.19312 2 1 ack 40 ------- 1 3.1 1.0 16 43
r 6.2144 2 1 ack 40 ------- 1 3.1 1.0 16 43
+ 6.2144 1 2 tcp 1000 ------- 1 1.0 3.1 33 53
- 6.2144 1 2 tcp 1000 ------- 1 1.0 3.1 33 53
+ 6.2144 1 2 tcp 1000 ------- 1 1.0 3.1 34 54
- 6.2464 1 2 tcp 1000 ------- 1 1.0 3.1 34 54
r 6.2664 1 2 tcp 1000 ------- 1 1.0 3.1 33 53
+ 6.2664 2 3 tcp 1000 ------- 1 1.0 3.1 33 53
r 6.2984 1 2 tcp 1000 ------- 1 1.0 3.1 34 54
+ 6.2984 2 3 tcp 1000 ------- 1 1.0 3.1 34 54
- 6.30672 2 3 tcp 1000 ------- 1 1.0 3.1 24 39
r 6.32672 2 3 tcp 1000 ------- 1 1.0 3.1 20 33
+ 6.32672 3 2 ack 40 ------- 1 3.1 1.0 20 55
- 6.32672 3 2 ack 40 ------- 1 3.1 1.0 20 55
r 6.35312 3 2 ack 40 ------- 1 3.1 1.0 17 46
+ 6.35312 2 1 ack 40 ------- 1 3.1 1.0 17 46
- 6.35312 2 1 ack 40 ------- 1 3.1 1.0 17 46
r 6.3744 2 1 ack 40 ------- 1 3.1 1.0 17 46
+ 6.3744 1 2 tcp 1000 ------- 1 1.0 3.1 35 56
- 6.3744 1 2 tcp 1000 ------- 1 1.0 3.1 35 56
+ 6.3744 1 2 tcp 1000 ------- 1 1.0 3.1 36 57
- 6.4064 1 2 tcp 1000 ------- 1 1.0 3.1 36 57
r 6.4264 1 2 tcp 1000 ------- 1 1.0 3.1 35 56
+ 6.4264 2 3 tcp 1000 ------- 1 1.0 3.1 35 56
r 6.4584 1 2 tcp 1000 ------- 1 1.0 3.1 36 57
+ 6.4584 2 3 tcp 1000 ------- 1 1.0 3.1 36 57
- 6.46672 2 3 tcp 1000 ------- 1 1.0 3.1 25 41
r 6.48672 2 3 tcp 1000 ------- 1 1.0 3.1 21 35
+ 6.48672 3 2 ack 40 ------- 1 3.1 1.0 21 58
- 6.48672 3 2 ack 40 ------- 1 3.1 1.0 21 58
r 6.51312 3 2 ack 40 ------- 1 3.1 1.0 18 49
+ 6.51312 2 1 ack 40 ------- 1 3.1 1.0 18 49
- 6.51312 2 1 ack 40 ------- 1 3.1 1.0 18 49
r 6.5344 2 1 ack 40 ------- 1 3.1 1.0 18 49
+ 6.5344 1 2 tcp 1000 ------- 1 1.0 3.1 37 59
- 6.5344 1 2 tcp 1000 ------- 1 1.0 3.1 37 59
+ 6.5344 1 2 tcp 1000 ------- 1 1.0 3.1 38 60
- 6.5664 1 2 tcp 1000 ------- 1 1.0 3.1 38 60
r 6.5864 1 2 tcp 1000 ------- 1 1.0 3.1 37 59
+ 6.5864 2 3 tcp 1000 ------- 1 1.0 3.1 37 59
r 6.6184 1 2 tcp 1000 ------- 1 1.0 3.1 38 60
+ 6.6184 2 3 tcp 1000 ------- 1 1.0 3.1 38 60
- 6.62672 2 3 tcp 1000 ------- 1 1.0 3.1 26 42
r 6.64672 2 3 tcp 1000 ------- 1 1.0 3.1 22 36
+ 6.64672 3 2 ack 40 ------- 1 3.1 1.0 22 61
- 6.64672 3 2 ack 40 ------- 1 3.1 1.0 22 61
r 6.67312 3 2 ack 40 ------- 1 3.1 1.0 19 52
+ 6.67312 2 1 ack 40 ------- 1 3.1 1.0 19 52
- 6.67312 2 1 ack 40 ------- 1 3.1 1.0 19 52
r 6.6944 2 1 ack 40 ------- 1 3.1 1.0 19 52
+ 6.6944 1 2 tcp 1000 ------- 1 1.0 3.1 39 62
- 6.6944 1 2 tcp 1000 ------- 1 1.0 3.1 39 62
r 6.7464 1 2 tcp 1000 ------- 1 1.0 3.1 39 62
+ 6.7464 2 3 tcp 1000 ------- 1 1.0 3.1 39 62
- 6.78672 2 3 tcp 1000 ------- 1 1.0 3.1 27 44
r 6.80672 2 3 tcp 1000 ------- 1 1.0 3.1 23 38
+ 6.80672 3 2 ack 40 ------- 1 3.1 1.0 23 63
- 6.80672 3 2 ack 40 ------- 1 3.1 1.0 23 63
r 6.83312 3 2 ack 40 ------- 1 3.1 1.0 20 55
+ 6.83312 2 1 ack 40 ------- 1 3.1 1.0 20 55
- 6.83312 2 1 ack 40 ------- 1 3.1 1.0 20 55
r 6.8544 2 1 ack 40 ------- 1 3.1 1.0 20 55
+ 6.8544 1 2 tcp 1000 ------- 1 1.0 3.1 40 64
- 6.8544 1 2 tcp 1000 ------- 1 1.0 3.1 40 64
r 6.9064 1 2 tcp 1000 ------- 1 1.0 3.1 40 64
+ 6.9064 2 3 tcp 1000 ------- 1 1.0 3.1 40 64
- 6.94672 2 3 tcp 1000 ------- 1 1.0 3.1 28 45
r 6.96672 2 3 tcp 1000 ------- 1 1.0 3.1 24 39
+ 6.96672 3 2 ack 40 ------- 1 3.1 1.0 24 65
- 6.96672 3 2 ack 40 ------- 1 3.1 1.0 24 65
r 6.99312 3 2 ack 40 ------- 1 3.1 1.0 21 58
+ 6.99312 2 1 ack 40 ------- 1 3.1 1.0 21 58
- 6.99312 2 1 ack 40 ------- 1 3.1 1.0 21 58
r 7.0144 2 1 ack 40 ------- 1 3.1 1.0 21 58
+ 7.0144 1 2 tcp 1000 ------- 1 1.0 3.1 41 66
- 7.0144 1 2 tcp 1000 ------- 1 1.0 3.1 41 66
r 7.0664 1 2 tcp 1000 ------- 1 1.0 3.1 41 66
+ 7.0664 2 3 tcp 1000 ------- 1 1.0 3.1 41 66
- 7.10672 2 3 tcp 1000 ------- 1 1.0 3.1 29 47
r 7.12672 2 3 tcp 1000 ------- 1 1.0 3.1 25 41
+ 7.12672 3 2 ack 40 ------- 1 3.1 1.0 25 67
- 7.12672 3 2 ack 40 ------- 1 3.1 1.0 25 67
r 7.15312 3 2 ack 40 ------- 1 3.1 1.0 22 61
+ 7.15312 2 1 ack 40 ------- 1 3.1 1.0 22 61
- 7.15312 2 1 ack 40 ------- 1 3.1 1.0 22 61
r 7.1744 2 1 ack 40 ------- 1 3.1 1.0 22 61
+ 7.1744 1 2 tcp 1000 ------- 1 1.0 3.1 42 68
- 7.1744 1 2 tcp 1000 ------- 1 1.0 3.1 42 68
r 7.2264 1 2 tcp 1000 ------- 1 1.0 3.1 42 68
+ 7.2264 2 3 tcp 1000 ------- 1 1.0 3.1 42 68
- 7.26672 2 3 tcp 1000 ------- 1 1.0 3.1 30 48
r 7.28672 2 3 tcp 1000 ------- 1 1.0 3.1 26 42
+ 7.28672 3 2 ack 40 ------- 1 3.1 1.0 26 69
- 7.28672 3 2 ack 40 ------- 1 3.1 1.0 26 69
r 7.31312 3 2 ack 40 ------- 1 3.1 1.0 23 63
+ 7.31312 2 1 ack 40 ------- 1 3.1 1.0 23 63
- 7.31312 2 1 ack 40 ------- 1 3.1 1.0 23 63
r 7.3344 2 1 ack 40 ------- 1 3.1 1.0 23 63
+ 7.3344 1 2 tcp 1000 ------- 1 1.0 3.1 43 70
- 7.3344 1 2 tcp 1000 ------- 1 1.0 3.1 43 70
r 7.3864 1 2 tcp 1000 ------- 1 1.0 3.1 43 70
+ 7.3864 2 3 tcp 1000 ------- 1 1.0 3.1 43 70
- 7.42672 2 3 tcp 1000 ------- 1 1.0 3.1 31 50
r 7.44672 2 3 tcp 1000 ------- 1 1.0 3.1 27 44
+ 7.44672 3 2 ack 40 ------- 1 3.1 1.0 27 71
- 7.44672 3 2 ack 40 ------- 1 3.1 1.0 27 71
r 7.47312 3 2 ack 40 ------- 1 3.1 1.0 24 65
+ 7.47312 2 1 ack 40 ------- 1 3.1 1.0 24 65
- 7.47312 2 1 ack 40 ------- 1 3.1 1.0 24 65
r 7.4944 2 1 ack 40 ------- 1 3.1 1.0 24 65
+ 7.4944 1 2 tcp 1000 ------- 1 1.0 3.1 44 72
- 7.4944 1 2 tcp 1000 ------- 1 1.0 3.1 44 72
r 7.5464 1 2 tcp 1000 ------- 1 1.0 3.1 44 72
+ 7.5464 2 3 tcp 1000 ------- 1 1.0 3.1 44 72
- 7.58672 2 3 tcp 1000 ------- 1 1.0 3.1 32 51
r 7.60672 2 3 tcp 1000 ------- 1 1.0 3.1 28 45
+ 7.60672 3 2 ack 40 ------- 1 3.1 1.0 28 73
- 7.60672 3 2 ack 40 ------- 1 3.1 1.0 28 73
r 7.63312 3 2 ack 40 ------- 1 3.1 1.0 25 67
+ 7.63312 2 1 ack 40 ------- 1 3.1 1.0 25 67
- 7.63312 2 1 ack 40 ------- 1 3.1 1.0 25 67
r 7.6544 2 1 ack 40 ------- 1 3.1 1.0 25 67
+ 7.6544 1 2 tcp 1000 ------- 1 1.0 3.1 45 74
- 7.6544 1 2 tcp 1000 ------- 1 1.0 3.1 45 74
r 7.7064 1 2 tcp 1000 ------- 1 1.0 3.1 45 74
+ 7.7064 2 3 tcp 1000 ------- 1 1.0 3.1 45 74
- 7.74672 2 3 tcp 1000 ------- 1 1.0 3.1 33 53
r 7.76672 2 3 tcp 1000 ------- 1 1.0 3.1 29 47
+ 7.76672 3 2 ack 40 ------- 1 3.1 1.0 29 75
- 7.76672 3 2 ack 40 ------- 1 3.1 1.0 29 75
r 7.79312 3 2 ack 40 ------- 1 3.1 1.0 26 69
+ 7.79312 2 1 ack 40 ------- 1 3.1 1.0 26 69
- 7.79312 2 1 ack 40 ------- 1 3.1 1.0 26 69
r 7.8144 2 1 ack 40 ------- 1 3.1 1.0 26 69
+ 7.8144 1 2 tcp 1000 ------- 1 1.0 3.1 46 76
- 7.8144 1 2 tcp 1000 ------- 1 1.0 3.1 46 76
r 7.8664 1 2 tcp 1000 ------- 1 1.0 3.1 46 76
+ 7.8664 2 3 tcp 1000 ------- 1 1.0 3.1 46 76
- 7.90672 2 3 tcp 1000 ------- 1 1.0 3.1 34 54
r 7.92672 2 3 tcp 1000 ------- 1 1.0 3.1 30 48
+ 7.92672 3 2 ack 40 ------- 1 3.1 1.0 30 77
- 7.92672 3 2 ack 40 ------- 1 3.1 1.0 30 77
r 7.95312 3 2 ack 40 ------- 1 3.1 1.0 27 71
+ 7.95312 2 1 ack 40 ------- 1 3.1 1.0 27 71
- 7.95312 2 1 ack 40 ------- 1 3.1 1.0 27 71
r 7.9744 2 1 ack 40 ------- 1 3.1 1.0 27 71
+ 7.9744 1 2 tcp 1000 ------- 1 1.0 3.1 47 78
- 7.9744 1 2 tcp 1000 ------- 1 1.0 3.1 47 78
r 8.0264 1 2 tcp 1000 ------- 1 1.0 3.1 47 78
+ 8.0264 2 3 tcp 1000 ------- 1 1.0 3.1 47 78
- 8.06672 2 3 tcp 1000 ------- 1 1.0 3.1 35 56
r 8.08672 2 3 tcp 1000 ------- 1 1.0 3.1 31 50
+ 8.08672 3 2 ack 40 ------- 1 3.1 1.0 31 79
- 8.08672 3 2 ack 40 ------- 1 3.1 1.0 31 79
r 8.11312 3 2 ack 40 ------- 1 3.1 1.0 28 73
+ 8.11312 2 1 ack 40 ------- 1 3.1 1.0 28 73
- 8.11312 2 1 ack 40 ------- 1 3.1 1.0 28 73
r 8.1344 2 1 ack 40 ------- 1 3.1 1.0 28 73
+ 8.1344 1 2 tcp 1000 ------- 1 1.0 3.1 48 80
- 8.1344 1 2 tcp 1000 ------- 1 1.0 3.1 48 80
r 8.1864 1 2 tcp 1000 ------- 1 1.0 3.1 48 80
+ 8.1864 2 3 tcp 1000 ------- 1 1.0 3.1 48 80
- 8.22672 2 3 tcp 1000 ------- 1 1.0 3.1 36 57
r 8.24672 2 3 tcp 1000 ------- 1 1.0 3.1 32 51
+ 8.24672 3 2 ack 40 ------- 1 3.1 1.0 32 81
- 8.24672 3 2 ack 40 ------- 1 3.1 1.0 32 81
r 8.27312 3 2 ack 40 ------- 1 3.1 1.0 29 75
+ 8.27312 2 1 ack 40 ------- 1 3.1 1.0 29 75
- 8.27312 2 1 ack 40 ------- 1 3.1 1.0 29 75
r 8.2944 2 1 ack 40 ------- 1 3.1 1.0 29 75
+ 8.2944 1 2 tcp 1000 ------- 1 1.0 3.1 49 82
- 8.2944 1 2 tcp 1000 ------- 1 1.0 3.1 49 82
r 8.3464 1 2 tcp 1000 ------- 1 1.0 3.1 49 82
+ 8.3464 2 3 tcp 1000 ------- 1 1.0 3.1 49 82
- 8.38672 2 3 tcp 1000 ------- 1 1.0 3.1 37 59
r 8.40672 2 3 tcp 1000 ------- 1 1.0 3.1 33 53
+ 8.40672 3 2 ack 40 ------- 1 3.1 1.0 33 83
- 8.40672 3 2 ack 40 ------- 1 3.1 1.0 33 83
r 8.43312 3 2 ack 40 ------- 1 3.1 1.0 30 77
+ 8.43312 2 1 ack 40 ------- 1 3.1 1.0 30 77
- 8.43312 2 1 ack 40 ------- 1 3.1 1.0 30 77
r 8.4544 2 1 ack 40 ------- 1 3.1 1.0 30 77
+ 8.4544 1 2 tcp 1000 ------- 1 1.0 3.1 50 84
- 8.4544 1 2 tcp 1000 ------- 1 1.0 3.1 50 84
r 8.5064 1 2 tcp 1000 ------- 1 1.0 3.1 50 84
+ 8.5064 2 3 tcp 1000 ------- 1 1.0 3.1 50 84
- 8.54672 2 3 tcp 1000 ------- 1 1.0 3.1 38 60
r 8.56672 2 3 tcp 1000 ------- 1 1.0 3.1 34 54
+ 8.56672 3 2 ack 40 ------- 1 3.1 1.0 34 85
- 8.56672 3 2 ack 40 ------- 1 3.1 1.0 34 85
r 8.59312 3 2 ack 40 ------- 1 3.1 1.0 31 79
+ 8.59312 2 1 ack 40 ------- 1 3.1 1.0 31 79
- 8.59312 2 1 ack 40 ------- 1 3.1 1.0 31 79
r 8.6144 2 1 ack 40 ------- 1 3.1 1.0 31 79
+ 8.6144 1 2 tcp 1000 ------- 1 1.0 3.1 51 86
- 8.6144 1 2 tcp 1000 ------- 1 1.0 3.1 51 86
r 8.6664 1 2 tcp 1000 ------- 1 1.0 3.1 51 86
+ 8.6664 2 3 tcp 1000 ------- 1 1.0 3.1 51 86
- 8.70672 2 3 tcp 1000 ------- 1 1.0 3.1 39 62
r 8.72672 2 3 tcp 1000 ------- 1 1.0 3.1 35 56
+ 8.72672 3 2 ack 40 ------- 1 3.1 1.0 35 87
- 8.72672 3 2 ack 40 ------- 1 3.1 1.0 35 87
r 8.75312 3 2 ack 40 ------- 1 3.1 1.0 32 81
+ 8.75312 2 1 ack 40 ------- 1 3.1 1.0 32 81
- 8.75312 2 1 ack 40 ------- 1 3.1 1.0 32 81
r 8.7744 2 1 ack 40 ------- 1 3.1 1.0 32 81
+ 8.7744 1 2 tcp 1000 ------- 1 1.0 3.1 52 88
- 8.7744 1 2 tcp 1000 ------- 1 1.0 3.1 52 88
r 8.8264 1 2 tcp 1000 ------- 1 1.0 3.1 52 88
+ 8.8264 2 3 tcp 1000 ------- 1 1.0 3.1 52 88
- 8.86672 2 3 tcp 1000 ------- 1 1.0 3.1 40 64
r 8.88672 2 3 tcp 1000 ------- 1 1.0 3.1 36 57
+ 8.88672 3 2 ack 40 ------- 1 3.1 1.0 36 89
- 8.88672 3 2 ack 40 ------- 1 3.1 1.0 36 89
r 8.91312 3 2 ack 40 ------- 1 3.1 1.0 33 83
+ 8.91312 2 1 ack 40 ------- 1 3.1 1.0 33 83
- 8.91312 2 1 ack 40 ------- 1 3.1 1.0 33 83
r 8.9344 2 1 ack 40 ------- 1 3.1 1.0 33 83
+ 8.9344 1 2 tcp 1000 ------- 1 1.0 3.1 53 90
- 8.9344 1 2 tcp 1000 ------- 1 1.0 3.1 53 90
r 8.9864 1 2 tcp 1000 ------- 1 1.0 3.1 53 90
+ 8.9864 2 3 tcp 1000 ------- 1 1.0 3.1 53 90
- 9.02672 2 3 tcp 1000 ------- 1 1.0 3.1 41 66
r 9.04672 2 3 tcp 1000 ------- 1 1.0 3.1 37 59
+ 9.04672 3 2 ack 40 ------- 1 3.1 1.0 37 91
- 9.04672 3 2 ack 40 ------- 1 3.1 1.0 37 91
r 9.07312 3 2 ack 40 ------- 1 3.1 1.0 34 85
+ 9.07312 2 1 ack 40 ------- 1 3.1 1.0 34 85
- 9.07312 2 1 ack 40 ------- 1 3.1 1.0 34 85
r 9.0944 2 1 ack 40 ------- 1 3.1 1.0 34 85
+ 9.0944 1 2 tcp 1000 ------- 1 1.0 3.1 54 92
- 9.0944 1 2 tcp 1000 ------- 1 1.0 3.1 54 92
r 9.1464 1 2 tcp 1000 ------- 1 1.0 3.1 54 92
+ 9.1464 2 3 tcp 1000 ------- 1 1.0 3.1 54 92
- 9.18672 2 3 tcp 1000 ------- 1 1.0 3.1 42 68
r 9.20672 2 3 tcp 1000 ------- 1 1.0 3.1 38 60
+ 9.20672 3 2 ack 40 ------- 1 3.1 1.0 38 93
- 9.20672 3 2 ack 40 ------- 1 3.1 1.0 38 93
r 9.23312 3 2 ack 40 ------- 1 3.1 1.0 35 87
+ 9.23312 2 1 ack 40 ------- 1 3.1 1.0 35 87
- 9.23312 2 1 ack 40 ------- 1 3.1 1.0 35 87
r 9.2544 2 1 ack 40 ------- 1 3.1 1.0 35 87
+ 9.2544 1 2 tcp 1000 ------- 1 1.0 3.1 55 94
- 9.2544 1 2 tcp 1000 ------- 1 1.0 3.1 55 94
r 9.3064 1 2 tcp 1000 ------- 1 1.0 3.1 55 94
+ 9.3064 2 3 tcp 1000 ------- 1 1.0 3.1 55 94
- 9.34672 2 3 tcp 1000 ------- 1 1.0 3.1 43 70
r 9.36672 2 3 tcp 1000 ------- 1 1.0 3.1 39 62
+ 9.36672 3 2 ack 40 ------- 1 3.1 1.0 39 95
- 9.36672 3 2 ack 40 ------- 1 3.1 1.0 39 95
r 9.39312 3 2 ack 40 ------- 1 3.1 1.0 36 89
+ 9.39312 2 1 ack 40 ------- 1 3.1 1.0 36 89
- 9.39312 2 1 ack 40 ------- 1 3.1 1.0 36 89
r 9.4144 2 1 ack 40 ------- 1 3.1 1.0 36 89
+ 9.4144 1 2 tcp 1000 ------- 1 1.0 3.1 56 96
- 9.4144 1 2 tcp 1000 ------- 1 1.0 3.1 56 96
r 9.4664 1 2 tcp 1000 ------- 1 1.0 3.1 56 96
+ 9.4664 2 3 tcp 1000 ------- 1 1.0 3.1 56 96
- 9.50672 2 3 tcp 1000 ------- 1 1.0 3.1 44 72
r 9.52672 2 3 tcp 1000 ------- 1 1.0 3.1 40 64
+ 9.52672 3 2 ack 40 ------- 1 3.1 1.0 40 97
- 9.52672 3 2 ack 40 ------- 1 3.1 1.0 40 97
r 9.55312 3 2 ack 40 ------- 1 3.1 1.0 37 91
+ 9.55312 2 1 ack 40 ------- 1 3.1 1.0 37 91
- 9.55312 2 1 ack 40 ------- 1 3.1 1.0 37 91
r 9.5744 2 1 ack 40 ------- 1 3.1 1.0 37 91
+ 9.5744 1 2 tcp 1000 ------- 1 1.0 3.1 57 98
- 9.5744 1 2 tcp 1000 ------- 1 1.0 3.1 57 98
r 9.6264 1 2 tcp 1000 ------- 1 1.0 3.1 57 98
+ 9.6264 2 3 tcp 1000 ------- 1 1.0 3.1 57 98
- 9.66672 2 3 tcp 1000 ------- 1 1.0 3.1 45 74
r 9.68672 2 3 tcp 1000 ------- 1 1.0 3.1 41 66
+ 9.68672 3 2 ack 40 ------- 1 3.1 1.0 41 99
- 9.68672 3 2 ack 40 ------- 1 3.1 1.0 41 99
r 9.71312 3 2 ack 40 ------- 1 3.1 1.0 38 93
+ 9.71312 2 1 ack 40 ------- 1 3.1 1.0 38 93
- 9.71312 2 1 ack 40 ------- 1 3.1 1.0 38 93
r 9.7344 2 1 ack 40 ------- 1 3.1 1.0 38 93
+ 9.7344 1 2 tcp 1000 ------- 1 1.0 3.1 58 100
- 9.7344 1 2 tcp 1000 ------- 1 1.0 3.1 58 100
r 9.7864 1 2 tcp 1000 ------- 1 1.0 3.1 58 100
+ 9.7864 2 3 tcp 1000 ------- 1 1.0 3.1 58 100
- 9.82672 2 3 tcp 1000 ------- 1 1.0 3.1 46 76
r 9.84672 2 3 tcp 1000 ------- 1 1.0 3.1 42 68
+ 9.84672 3 2 ack 40 ------- 1 3.1 1.0 42 101
- 9.84672 3 2 ack 40 ------- 1 3.1 1.0 42 101
r 9.87312 3 2 ack 40 ------- 1 3.1 1.0 39 95
+ 9.87312 2 1 ack 40 ------- 1 3.1 1.0 39 95
- 9.87312 2 1 ack 40 ------- 1 3.1 1.0 39 95
r 9.8944 2 1 ack 40 ------- 1 3.1 1.0 39 95
+ 9.8944 1 2 tcp 1000 ------- 1 1.0 3.1 59 102
- 9.8944 1 2 tcp 1000 ------- 1 1.0 3.1 59 102
r 9.9464 1 2 tcp 1000 ------- 1 1.0 3.1 59 102
+ 9.9464 2 3 tcp 1000 ------- 1 1.0 3.1 59 102
- 9.98672 2 3 tcp 1000 ------- 1 1.0 3.1 47 78
r 10.00672 2 3 tcp 1000 ------- 1 1.0 3.1 43 70
+ 10.00672 3 2 ack 40 ------- 1 3.1 1.0 43 103
- 10.00672 3 2 ack 40 ------- 1 3.1 1.0 43 103
r 10.03312 3 2 ack 40 ------- 1 3.1 1.0 40 97
+ 10.03312 2 1 ack 40 ------- 1 3.1 1.0 40 97
- 10.03312 2 1 ack 40 ------- 1 3.1 1.0 40 97
r 10.0544 2 1 ack 40 ------- 1 3.1 1.0 40 97
+ 10.0544 1 2 tcp 1000 ------- 1 1.0 3.1 60 104
- 10.0544 1 2 tcp 1000 ------- 1 1.0 3.1 60 104
r 10.1064 1 2 tcp 1000 ------- 1 1.0 3.1 60 104
+ 10.1064 2 3 tcp 1000 ------- 1 1.0 3.1 60 104
- 10.14672 2 3 tcp 1000 ------- 1 1.0 3.1 48 80
r 10.16672 2 3 tcp 1000 ------- 1 1.0 3.1 44 72
+ 10.16672 3 2 ack 40 ------- 1 3.1 1.0 44 105
- 10.16672 3 2 ack 40 ------- 1 3.1 1.0 44 105
r 10.19312 3 2 ack 40 ------- 1 3.1 1.0 41 99
+ 10.19312 2 1 ack 40 ------- 1 3.1 1.0 41 99
- 10.19312 2 1 ack 40 ------- 1 3.1 1.0 41 99
r 10.2144 2 1 ack 40 ------- 1 3.1 1.0 41 99
+ 10.2144 1 2 tcp 1000 ------- 1 1.0 3.1 61 106
- 10.2144 1 2 tcp 1000 ------- 1 1.0 3.1 61 106
r 10.2664 1 2 tcp 1000 ------- 1 1.0 3.1 61 106
+ 10.2664 2 3 tcp 1000 ------- 1 1.0 3.1 61 106
- 10.30672 2 3 tcp 1000 ------- 1 1.0 3.1 49 82
r 10.32672 2 3 tcp 1000 ------- 1 1.0 3.1 45 74
+ 10.32672 3 2 ack 40 ------- 1 3.1 1.0 45 107
- 10.32672 3 2 ack 40 ------- 1 3.1 1.0 45 107
r 10.35312 3 2 ack 40 ------- 1 3.1 1.0 42 101
+ 10.35312 2 1 ack 40 ------- 1 3.1 1.0 42 101
- 10.35312 2 1 ack 40 ------- 1 3.1 1.0 42 101
r 10.3744 2 1 ack 40 ------- 1 3.1 1.0 42 101
+ 10.3744 1 2 tcp 1000 ------- 1 1.0 3.1 62 108
- 10.3744 1 2 tcp 1000 ------- 1 1.0 3.1 62 108
r 10.4264 1 2 tcp 1000 ------- 1 1.0 3.1 62 108
+ 10.4264 2 3 tcp 1000 ------- 1 1.0 3.1 62 108
- 10.46672 2 3 tcp 1000 ------- 1 1.0 3.1 50 84
r 10.48672 2 3 tcp 1000 ------- 1 1.0 3.1 46 76
+ 10.48672 3 2 ack 40 ------- 1 3.1 1.0 46 109
- 10.48672 3 2 ack 40 ------- 1 3.1 1.0 46 109
r 10.51312 3 2 ack 40 ------- 1 3.1 1.0 43 103
+ 10.51312 2 1 ack 40 ------- 1 3.1 1.0 43 103
- 10.51312 2 1 ack 40 ------- 1 3.1 1.0 43 103
r 10.5344 2 1 ack 40 ------- 1 3.1 1.0 43 103
+ 10.5344 1 2 tcp 1000 ------- 1 1.0 3.1 63 110
- 10.5344 1 2 tcp 1000 ------- 1 1.0 3.1 63 110
r 10.5864 1 2 tcp 1000 ------- 1 1.0 3.1 63 110
+ 10.5864 2 3 tcp 1000 ------- 1 1.0 3.1 63 110
- 10.62672 2 3 tcp 1000 ------- 1 1.0 3.1 51 86
r 10.64672 2 3 tcp 1000 ------- 1 1.0 3.1 47 78
+ 10.64672 3 2 ack 40 ------- 1 3.1 1.0 47 111
- 10.64672 3 2 ack 40 ------- 1 3.1 1.0 47 111
r 10.67312 3 2 ack 40 ------- 1 3.1 1.0 44 105
+ 10.67312 2 1 ack 40 ------- 1 3.1 1.0 44 105
- 10.67312 2 1 ack 40 ------- 1 3.1 1.0 44 105
r 10.6944 2 1 ack 40 ------- 1 3.1 1.0 44 105
+ 10.6944 1 2 tcp 1000 ------- 1 1.0 3.1 64 112
- 10.6944 1 2 tcp 1000 ------- 1 1.0 3.1 64 112
r 10.7464 1 2 tcp 1000 ------- 1 1.0 3.1 64 112
+ 10.7464 2 3 tcp 1000 ------- 1 1.0 3.1 64 112
- 10.78672 2 3 tcp 1000 ------- 1 1.0 3.1 52 88
r 10.80672 2 3 tcp 1000 ------- 1 1.0 3.1 48 80
+ 10.80672 3 2 ack 40 ------- 1 3.1 1.0 48 113
- 10.80672 3 2 ack 40 ------- 1 3.1 1.0 48 113
r 10.83312 3 2 ack 40 ------- 1 3.1 1.0 45 107
+ 10.83312 2 1 ack 40 ------- 1 3.1 1.0 45 107
- 10.83312 2 1 ack 40 ------- 1 3.1 1.0 45 107
r 10.8544 2 1 ack 40 ------- 1 3.1 1.0 45 107
+ 10.8544 1 2 tcp 1000 ------- 1 1.0 3.1 65 114
- 10.8544 1 2 tcp 1000 ------- 1 1.0 3.1 65 114
r 10.9064 1 2 tcp 1000 ------- 1 1.0 3.1 65 114
+ 10.9064 2 3 tcp 1000 ------- 1 1.0 3.1 65 114
- 10.94672 2 3 tcp 1000 ------- 1 1.0 3.1 53 90
r 10.96672 2 3 tcp 1000 ------- 1 1.0 3.1 49 82
+ 10.96672 3 2 ack 40 ------- 1 3.1 1.0 49 115
- 10.96672 3 2 ack 40 ------- 1 3.1 1.0 49 115
r 10.99312 3 2 ack 40 ------- 1 3.1 1.0 46 109
+ 10.99312 2 1 ack 40 ------- 1 3.1 1.0 46 109
- 10.99312 2 1 ack 40 ------- 1 3.1 1.0 46 109
r 11.0144 2 1 ack 40 ------- 1 3.1 1.0 46 109