+ 0 1 2 tcp 40 ------- 1 1.0 3.1 0 0
- 0 1 2 tcp 40 ------- 1 1.0 3.1 0 0
r 0.020064 1 2 tcp 40 ------- 1 1.0 3.1 0 0
+ 0.020064 2 3 tcp 40 ------- 1 1.0 3.1 0 0
- 0.020064 2 3 tcp 40 ------- 1 1.0 3.1 0 0
r 0.070384 2 3 tcp 40 ------- 1 1.0 3.1 0 0
+ 0.070384 3 2 ack 40 ------- 1 3.1 1.0 0 1
- 0.070384 3 2 ack 40 ------- 1 3.1 1.0 0 1
r 0.120704 3 2 ack 40 ------- 1 3.1 1.0 0 1
+ 0.120704 2 1 ack 40 ------- 1 3.1 1.0 0 1
- 0.120704 2 1 ack 40 ------- 1 3.1 1.0 0 1
r 0.140768 2 1 ack 40 ------- 1 3.1 1.0 0 1
+ 0.140768 1 2 tcp 1000 ------- 1 1.0 3.1 1 2
- 0.140768 1 2 tcp 1000 ------- 1 1.0 3.1 1 2
+ 0.140768 1 2 tcp 1000 ------- 1 1.0 3.1 2 3
- 0.142368 1 2 tcp 1000 ------- 1 1.0 3.1 2 3
r 0.162368 1 2 tcp 1000 ------- 1 1.0 3.1 1 2
+ 0.162368 2 3 tcp 1000 ------- 1 1.0 3.1 1 2
- 0.162368 2 3 tcp 1000 ------- 1 1.0 3.1 1 2
r 0.163968 1 2 tcp 1000 ------- 1 1.0 3.1 2 3
+ 0.163968 2 3 tcp 1000 ------- 1 1.0 3.1 2 3
- 0.170368 2 3 tcp 1000 ------- 1 1.0 3.1 2 3
r 0.220368 2 3 tcp 1000 ------- 1 1.0 3.1 1 2
+ 0.220368 3 2 ack 40 ------- 1 3.1 1.0 1 4
- 0.220368 3 2 ack 40 ------- 1 3.1 1.0 1 4
r 0.228368 2 3 tcp 1000 ------- 1 1.0 3.1 2 3
+ 0.228368 3 2 ack 40 ------- 1 3.1 1.0 2 5
- 0.228368 3 2 ack 40 ------- 1 3.1 1.0 2 5
r 0.270688 3 2 ack 40 ------- 1 3.1 1.0 1 4
+ 0.270688 2 1 ack 40 ------- 1 3.1 1.0 1 4
- 0.270688 2 1 ack 40 ------- 1 3.1 1.0 1 4
r 0.278688 3 2 ack 40 ------- 1 3.1 1.0 2 5
+ 0.278688 2 1 ack 40 ------- 1 3.1 1.0 2 5
- 0.278688 2 1 ack 40 ------- 1 3.1 1.0 2 5
r 0.290752 2 1 ack 40 ------- 1 3.1 1.0 1 4
+ 0.290752 1 2 tcp 1000 ------- 1 1.0 3.1 3 6
- 0.290752 1 2 tcp 1000 ------- 1 1.0 3.1 3 6
+ 0.290752 1 2 tcp 1000 ------- 1 1.0 3.1 4 7
- 0.292352 1 2 tcp 1000 ------- 1 1.0 3.1 4 7
r 0.298752 2 1 ack 40 ------- 1 3.1 1.0 2 5
+ 0.298752 1 2 tcp 1000 ------- 1 1.0 3.1 5 8
- 0.298752 1 2 tcp 1000 ------- 1 1.0 3.1 5 8
+ 0.298752 1 2 tcp 1000 ------- 1 1.0 3.1 6 9
- 0.300352 1 2 tcp 1000 ------- 1 1.0 3.1 6 9
r 0.312352 1 2 tcp 1000 ------- 1 1.0 3.1 3 6
+ 0.312352 2 3 tcp 1000 ------- 1 1.0 3.1 3 6
- 0.312352 2 3 tcp 1000 ------- 1 1.0 3.1 3 6
r 0.313952 1 2 tcp 1000 ------- 1 1.0 3.1 4 7
+ 0.313952 2 3 tcp 1000 ------- 1 1.0 3.1 4 7
r 0.320352 1 2 tcp 1000 ------- 1 1.0 3.1 5 8
+ 0.320352 2 3 tcp 1000 ------- 1 1.0 3.1 5 8
- 0.320352 2 3 tcp 1000 ------- 1 1.0 3.1 4 7
r 0.321952 1 2 tcp 1000 ------- 1 1.0 3.1 6 9
+ 0.321952 2 3 tcp 1000 ------- 1 1.0 3.1 6 9
- 0.328352 2 3 tcp 1000 ------- 1 1.0 3.1 5 8
- 0.336352 2 3 tcp 1000 ------- 1 1.0 3.1 6 9
r 0.370352 2 3 tcp 1000 ------- 1 1.0 3.1 3 6
+ 0.370352 3 2 ack 40 ------- 1 3.1 1.0 3 10
- 0.370352 3 2 ack 40 ------- 1 3.1 1.0 3 10
r 0.378352 2 3 tcp 1000 ------- 1 1.0 3.1 4 7
+ 0.378352 3 2 ack 40 ------- 1 3.1 1.0 4 11
- 0.378352 3 2 ack 40 ------- 1 3.1 1.0 4 11
r 0.386352 2 3 tcp 1000 ------- 1 1.0 3.1 5 8
+ 0.386352 3 2 ack 40 ------- 1 3.1 1.0 5 12
- 0.386352 3 2 ack 40 ------- 1 3.1 1.0 5 12
r 0.394352 2 3 tcp 1000 ------- 1 1.0 3.1 6 9
+ 0.394352 3 2 ack 40 ------- 1 3.1 1.0 6 13
- 0.394352 3 2 ack 40 ------- 1 3.1 1.0 6 13
r 0.420672 3 2 ack 40 ------- 1 3.1 1.0 3 10
+ 0.420672 2 1 ack 40 ------- 1 3.1 1.0 3 10
- 0.420672 2 1 ack 40 ------- 1 3.1 1.0 3 10
r 0.428672 3 2 ack 40 ------- 1 3.1 1.0 4 11
+ 0.428672 2 1 ack 40 ------- 1 3.1 1.0 4 11
- 0.428672 2 1 ack 40 ------- 1 3.1 1.0 4 11
r 0.436672 3 2 ack 40 ------- 1 3.1 1.0 5 12
+ 0.436672 2 1 ack 40 ------- 1 3.1 1.0 5 12
- 0.436672 2 1 ack 40 ------- 1 3.1 1.0 5 12
r 0.440736 2 1 ack 40 ------- 1 3.1 1.0 3 10
+ 0.440736 1 2 tcp 1000 ------- 1 1.0 3.1 7 14
- 0.440736 1 2 tcp 1000 ------- 1 1.0 3.1 7 14
+ 0.440736 1 2 tcp 1000 ------- 1 1.0 3.1 8 15
- 0.442336 1 2 tcp 1000 ------- 1 1.0 3.1 8 15
r 0.444672 3 2 ack 40 ------- 1 3.1 1.0 6 13
+ 0.444672 2 1 ack 40 ------- 1 3.1 1.0 6 13
- 0.444672 2 1 ack 40 ------- 1 3.1 1.0 6 13
r 0.448736 2 1 ack 40 ------- 1 3.1 1.0 4 11
+ 0.448736 1 2 tcp 1000 ------- 1 1.0 3.1 9 16
- 0.448736 1 2 tcp 1000 ------- 1 1.0 3.1 9 16
+ 0.448736 1 2 tcp 1000 ------- 1 1.0 3.1 10 17
- 0.450336 1 2 tcp 1000 ------- 1 1.0 3.1 10 17
r 0.456736 2 1 ack 40 ------- 1 3.1 1.0 5 12
+ 0.456736 1 2 tcp 1000 ------- 1 1.0 3.1 11 18
- 0.456736 1 2 tcp 1000 ------- 1 1.0 3.1 11 18
+ 0.456736 1 2 tcp 1000 ------- 1 1.0 3.1 12 19
- 0.458336 1 2 tcp 1000 ------- 1 1.0 3.1 12 19
r 0.462336 1 2 tcp 1000 ------- 1 1.0 3.1 7 14
+ 0.462336 2 3 tcp 1000 ------- 1 1.0 3.1 7 14
- 0.462336 2 3 tcp 1000 ------- 1 1.0 3.1 7 14
r 0.463936 1 2 tcp 1000 ------- 1 1.0 3.1 8 15
+ 0.463936 2 3 tcp 1000 ------- 1 1.0 3.1 8 15
r 0.464736 2 1 ack 40 ------- 1 3.1 1.0 6 13
+ 0.464736 1 2 tcp 1000 ------- 1 1.0 3.1 13 20
- 0.464736 1 2 tcp 1000 ------- 1 1.0 3.1 13 20
+ 0.464736 1 2 tcp 1000 ------- 1 1.0 3.1 14 21
- 0.466336 1 2 tcp 1000 ------- 1 1.0 3.1 14 21
r 0.470336 1 2 tcp 1000 ------- 1 1.0 3.1 9 16
+ 0.470336 2 3 tcp 1000 ------- 1 1.0 3.1 9 16
- 0.470336 2 3 tcp 1000 ------- 1 1.0 3.1 8 15
r 0.471936 1 2 tcp 1000 ------- 1 1.0 3.1 10 17
+ 0.471936 2 3 tcp 1000 ------- 1 1.0 3.1 10 17
r 0.478336 1 2 tcp 1000 ------- 1 1.0 3.1 11 18
+ 0.478336 2 3 tcp 1000 ------- 1 1.0 3.1 11 18
- 0.478336 2 3 tcp 1000 ------- 1 1.0 3.1 9 16
r 0.479936 1 2 tcp 1000 ------- 1 1.0 3.1 12 19
+ 0.479936 2 3 tcp 1000 ------- 1 1.0 3.1 12 19
r 0.486336 1 2 tcp 1000 ------- 1 1.0 3.1 13 20
+ 0.486336 2 3 tcp 1000 ------- 1 1.0 3.1 13 20
- 0.486336 2 3 tcp 1000 ------- 1 1.0 3.1 10 17
r 0.487936 1 2 tcp 1000 ------- 1 1.0 3.1 14 21
+ 0.487936 2 3 tcp 1000 ------- 1 1.0 3.1 14 21
- 0.494336 2 3 tcp 1000 ------- 1 1.0 3.1 11 18
- 0.502336 2 3 tcp 1000 ------- 1 1.0 3.1 12 19
- 0.510336 2 3 tcp 1000 ------- 1 1.0 3.1 13 20
- 0.518336 2 3 tcp 1000 ------- 1 1.0 3.1 14 21
r 0.520336 2 3 tcp 1000 ------- 1 1.0 3.1 7 14
+ 0.520336 3 2 ack 40 ------- 1 3.1 1.0 7 22
- 0.520336 3 2 ack 40 ------- 1 3.1 1.0 7 22
r 0.528336 2 3 tcp 1000 ------- 1 1.0 3.1 8 15
+ 0.528336 3 2 ack 40 ------- 1 3.1 1.0 8 23
- 0.528336 3 2 ack 40 ------- 1 3.1 1.0 8 23
r 0.536336 2 3 tcp 1000 ------- 1 1.0 3.1 9 16
+ 0.536336 3 2 ack 40 ------- 1 3.1 1.0 9 24
- 0.536336 3 2 ack 40 ------- 1 3.1 1.0 9 24
r 0.544336 2 3 tcp 1000 ------- 1 1.0 3.1 10 17
+ 0.544336 3 2 ack 40 ------- 1 3.1 1.0 10 25
- 0.544336 3 2 ack 40 ------- 1 3.1 1.0 10 25
r 0.552336 2 3 tcp 1000 ------- 1 1.0 3.1 11 18
+ 0.552336 3 2 ack 40 ------- 1 3.1 1.0 11 26
- 0.552336 3 2 ack 40 ------- 1 3.1 1.0 11 26
r 0.560336 2 3 tcp 1000 ------- 1 1.0 3.1 12 19
+ 0.560336 3 2 ack 40 ------- 1 3.1 1.0 12 27
- 0.560336 3 2 ack 40 ------- 1 3.1 1.0 12 27
r 0.568336 2 3 tcp 1000 ------- 1 1.0 3.1 13 20
+ 0.568336 3 2 ack 40 ------- 1 3.1 1.0 13 28
- 0.568336 3 2 ack 40 ------- 1 3.1 1.0 13 28
r 0.570656 3 2 ack 40 ------- 1 3.1 1.0 7 22
+ 0.570656 2 1 ack 40 ------- 1 3.1 1.0 7 22
- 0.570656 2 1 ack 40 ------- 1 3.1 1.0 7 22
r 0.576336 2 3 tcp 1000 ------- 1 1.0 3.1 14 21
+ 0.576336 3 2 ack 40 ------- 1 3.1 1.0 14 29
- 0.576336 3 2 ack 40 ------- 1 3.1 1.0 14 29
r 0.578656 3 2 ack 40 ------- 1 3.1 1.0 8 23
+ 0.578656 2 1 ack 40 ------- 1 3.1 1.0 8 23
- 0.578656 2 1 ack 40 ------- 1 3.1 1.0 8 23
r 0.586656 3 2 ack 40 ------- 1 3.1 1.0 9 24
+ 0.586656 2 1 ack 40 ------- 1 3.1 1.0 9 24
- 0.586656 2 1 ack 40 ------- 1 3.1 1.0 9 24
r 0.59072 2 1 ack 40 ------- 1 3.1 1.0 7 22
+ 0.59072 1 2 tcp 1000 ------- 1 1.0 3.1 15 30
- 0.59072 1 2 tcp 1000 ------- 1 1.0 3.1 15 30
+ 0.59072 1 2 tcp 1000 ------- 1 1.0 3.1 16 31
- 0.59232 1 2 tcp 1000 ------- 1 1.0 3.1 16 31
r 0.594656 3 2 ack 40 ------- 1 3.1 1.0 10 25
+ 0.594656 2 1 ack 40 ------- 1 3.1 1.0 10 25
- 0.594656 2 1 ack 40 ------- 1 3.1 1.0 10 25
r 0.59872 2 1 ack 40 ------- 1 3.1 1.0 8 23
+ 0.59872 1 2 tcp 1000 ------- 1 1.0 3.1 17 32
- 0.59872 1 2 tcp 1000 ------- 1 1.0 3.1 17 32
+ 0.59872 1 2 tcp 1000 ------- 1 1.0 3.1 18 33
- 0.60032 1 2 tcp 1000 ------- 1 1.0 3.1 18 33
r 0.602656 3 2 ack 40 ------- 1 3.1 1.0 11 26
+ 0.602656 2 1 ack 40 ------- 1 3.1 1.0 11 26
- 0.602656 2 1 ack 40 ------- 1 3.1 1.0 11 26
r 0.60672 2 1 ack 40 ------- 1 3.1 1.0 9 24
+ 0.60672 1 2 tcp 1000 ------- 1 1.0 3.1 19 34
- 0.60672 1 2 tcp 1000 ------- 1 1.0 3.1 19 34
+ 0.60672 1 2 tcp 1000 ------- 1 1.0 3.1 20 35
- 0.60832 1 2 tcp 1000 ------- 1 1.0 3.1 20 35
r 0.610656 3 2 ack 40 ------- 1 3.1 1.0 12 27
+ 0.610656 2 1 ack 40 ------- 1 3.1 1.0 12 27
- 0.610656 2 1 ack 40 ------- 1 3.1 1.0 12 27
r 0.61232 1 2 tcp 1000 ------- 1 1.0 3.1 15 30
+ 0.61232 2 3 tcp 1000 ------- 1 1.0 3.1 15 30
- 0.61232 2 3 tcp 1000 ------- 1 1.0 3.1 15 30
r 0.61392 1 2 tcp 1000 ------- 1 1.0 3.1 16 31
+ 0.61392 2 3 tcp 1000 ------- 1 1.0 3.1 16 31
r 0.61472 2 1 ack 40 ------- 1 3.1 1.0 10 25
+ 0.61472 1 2 tcp 1000 ------- 1 1.0 3.1 21 36
- 0.61472 1 2 tcp 1000 ------- 1 1.0 3.1 21 36
+ 0.61472 1 2 tcp 1000 ------- 1 1.0 3.1 22 37
- 0.61632 1 2 tcp 1000 ------- 1 1.0 3.1 22 37
r 0.618656 3 2 ack 40 ------- 1 3.1 1.0 13 28
+ 0.618656 2 1 ack 40 ------- 1 3.1 1.0 13 28
- 0.618656 2 1 ack 40 ------- 1 3.1 1.0 13 28
r 0.62032 1 2 tcp 1000 ------- 1 1.0 3.1 17 32
+ 0.62032 2 3 tcp 1000 ------- 1 1.0 3.1 17 32
- 0.62032 2 3 tcp 1000 ------- 1 1.0 3.1 16 31
r 0.62192 1 2 tcp 1000 ------- 1 1.0 3.1 18 33
+ 0.62192 2 3 tcp 1000 ------- 1 1.0 3.1 18 33
r 0.62272 2 1 ack 40 ------- 1 3.1 1.0 11 26
+ 0.62272 1 2 tcp 1000 ------- 1 1.0 3.1 23 38
- 0.62272 1 2 tcp 1000 ------- 1 1.0 3.1 23 38
+ 0.62272 1 2 tcp 1000 ------- 1 1.0 3.1 24 39
- 0.62432 1 2 tcp 1000 ------- 1 1.0 3.1 24 39
r 0.626656 3 2 ack 40 ------- 1 3.1 1.0 14 29
+ 0.626656 2 1 ack 40 ------- 1 3.1 1.0 14 29
- 0.626656 2 1 ack 40 ------- 1 3.1 1.0 14 29
r 0.62832 1 2 tcp 1000 ------- 1 1.0 3.1 19 34
+ 0.62832 2 3 tcp 1000 ------- 1 1.0 3.1 19 34
- 0.62832 2 3 tcp 1000 ------- 1 1.0 3.1 17 32
r 0.62992 1 2 tcp 1000 ------- 1 1.0 3.1 20 35
+ 0.62992 2 3 tcp 1000 ------- 1 1.0 3.1 20 35
r 0.63072 2 1 ack 40 ------- 1 3.1 1.0 12 27
+ 0.63072 1 2 tcp 1000 ------- 1 1.0 3.1 25 40
- 0.63072 1 2 tcp 1000 ------- 1 1.0 3.1 25 40
+ 0.63072 1 2 tcp 1000 ------- 1 1.0 3.1 26 41
- 0.63232 1 2 tcp 1000 ------- 1 1.0 3.1 26 41
r 0.63632 1 2 tcp 1000 ------- 1 1.0 3.1 21 36
+ 0.63632 2 3 tcp 1000 ------- 1 1.0 3.1 21 36
- 0.63632 2 3 tcp 1000 ------- 1 1.0 3.1 18 33
r 0.63792 1 2 tcp 1000 ------- 1 1.0 3.1 22 37
+ 0.63792 2 3 tcp 1000 ------- 1 1.0 3.1 22 37
r 0.63872 2 1 ack 40 ------- 1 3.1 1.0 13 28
+ 0.63872 1 2 tcp 1000 ------- 1 1.0 3.1 27 42
- 0.63872 1 2 tcp 1000 ------- 1 1.0 3.1 27 42
+ 0.63872 1 2 tcp 1000 ------- 1 1.0 3.1 28 43
- 0.64032 1 2 tcp 1000 ------- 1 1.0 3.1 28 43
r 0.64432 1 2 tcp 1000 ------- 1 1.0 3.1 23 38
+ 0.64432 2 3 tcp 1000 ------- 1 1.0 3.1 23 38
- 0.64432 2 3 tcp 1000 ------- 1 1.0 3.1 19 34
r 0.64592 1 2 tcp 1000 ------- 1 1.0 3.1 24 39
+ 0.64592 2 3 tcp 1000 ------- 1 1.0 3.1 24 39
r 0.64672 2 1 ack 40 ------- 1 3.1 1.0 14 29
+ 0.64672 1 2 tcp 1000 ------- 1 1.0 3.1 29 44
- 0.64672 1 2 tcp 1000 ------- 1 1.0 3.1 29 44
+ 0.64672 1 2 tcp 1000 ------- 1 1.0 3.1 30 45
- 0.64832 1 2 tcp 1000 ------- 1 1.0 3.1 30 45
r 0.65232 1 2 tcp 1000 ------- 1 1.0 3.1 25 40
+ 0.65232 2 3 tcp 1000 ------- 1 1.0 3.1 25 40
- 0.65232 2 3 tcp 1000 ------- 1 1.0 3.1 20 35
r 0.65392 1 2 tcp 1000 ------- 1 1.0 3.1 26 41
+ 0.65392 2 3 tcp 1000 ------- 1 1.0 3.1 26 41
r 0.66032 1 2 tcp 1000 ------- 1 1.0 3.1 27 42
+ 0.66032 2 3 tcp 1000 ------- 1 1.0 3.1 27 42
- 0.66032 2 3 tcp 1000 ------- 1 1.0 3.1 21 36
r 0.66192 1 2 tcp 1000 ------- 1 1.0 3.1 28 43
+ 0.66192 2 3 tcp 1000 ------- 1 1.0 3.1 28 43
r 0.66832 1 2 tcp 1000 ------- 1 1.0 3.1 29 44
+ 0.66832 2 3 tcp 1000 ------- 1 1.0 3.1 29 44
- 0.66832 2 3 tcp 1000 ------- 1 1.0 3.1 22 37
r 0.66992 1 2 tcp 1000 ------- 1 1.0 3.1 30 45
+ 0.66992 2 3 tcp 1000 ------- 1 1.0 3.1 30 45
r 0.67032 2 3 tcp 1000 ------- 1 1.0 3.1 15 30
+ 0.67032 3 2 ack 40 ------- 1 3.1 1.0 15 46
- 0.67032 3 2 ack 40 ------- 1 3.1 1.0 15 46
- 0.67632 2 3 tcp 1000 ------- 1 1.0 3.1 23 38
r 0.67832 2 3 tcp 1000 ------- 1 1.0 3.1 16 31
+ 0.67832 3 2 ack 40 ------- 1 3.1 1.0 16 47
- 0.67832 3 2 ack 40 ------- 1 3.1 1.0 16 47
- 0.68432 2 3 tcp 1000 ------- 1 1.0 3.1 24 39
r 0.68632 2 3 tcp 1000 ------- 1 1.0 3.1 17 32
+ 0.68632 3 2 ack 40 ------- 1 3.1 1.0 17 48
- 0.68632 3 2 ack 40 ------- 1 3.1 1.0 17 48
- 0.69232 2 3 tcp 1000 ------- 1 1.0 3.1 25 40
r 0.69432 2 3 tcp 1000 ------- 1 1.0 3.1 18 33
+ 0.69432 3 2 ack 40 ------- 1 3.1 1.0 18 49
- 0.69432 3 2 ack 40 ------- 1 3.1 1.0 18 49
- 0.70032 2 3 tcp 1000 ------- 1 1.0 3.1 26 41
r 0.70232 2 3 tcp 1000 ------- 1 1.0 3.1 19 34
+ 0.70232 3 2 ack 40 ------- 1 3.1 1.0 19 50
- 0.70232 3 2 ack 40 ------- 1 3.1 1.0 19 50
- 0.70832 2 3 tcp 1000 ------- 1 1.0 3.1 27 42
r 0.71032 2 3 tcp 1000 ------- 1 1.0 3.1 20 35
+ 0.71032 3 2 ack 40 ------- 1 3.1 1.0 20 51
- 0.71032 3 2 ack 40 ------- 1 3.1 1.0 20 51
- 0.71632 2 3 tcp 1000 ------- 1 1.0 3.1 28 43
r 0.71832 2 3 tcp 1000 ------- 1 1.0 3.1 21 36
+ 0.71832 3 2 ack 40 ------- 1 3.1 1.0 21 52
- 0.71832 3 2 ack 40 ------- 1 3.1 1.0 21 52
r 0.72064 3 2 ack 40 ------- 1 3.1 1.0 15 46
+ 0.72064 2 1 ack 40 ------- 1 3.1 1.0 15 46
- 0.72064 2 1 ack 40 ------- 1 3.1 1.0 15 46
- 0.72432 2 3 tcp 1000 ------- 1 1.0 3.1 29 44
r 0.72632 2 3 tcp 1000 ------- 1 1.0 3.1 22 37
+ 0.72632 3 2 ack 40 ------- 1 3.1 1.0 22 53
- 0.72632 3 2 ack 40 ------- 1 3.1 1.0 22 53
r 0.72864 3 2 ack 40 ------- 1 3.1 1.0 16 47
+ 0.72864 2 1 ack 40 ------- 1 3.1 1.0 16 47
- 0.72864 2 1 ack 40 ------- 1 3.1 1.0 16 47
- 0.73232 2 3 tcp 1000 ------- 1 1.0 3.1 30 45
r 0.73432 2 3 tcp 1000 ------- 1 1.0 3.1 23 38
+ 0.73432 3 2 ack 40 ------- 1 3.1 1.0 23 54
- 0.73432 3 2 ack 40 ------- 1 3.1 1.0 23 54
r 0.73664 3 2 ack 40 ------- 1 3.1 1.0 17 48
+ 0.73664 2 1 ack 40 ------- 1 3.1 1.0 17 48
- 0.73664 2 1 ack 40 ------- 1 3.1 1.0 17 48
r 0.740704 2 1 ack 40 ------- 1 3.1 1.0 15 46
+ 0.740704 1 2 tcp 1000 ------- 1 1.0 3.1 31 55
- 0.740704 1 2 tcp 1000 ------- 1 1.0 3.1 31 55
+ 0.740704 1 2 tcp 1000 ------- 1 1.0 3.1 32 56
- 0.742304 1 2 tcp 1000 ------- 1 1.0 3.1 32 56
r 0.74232 2 3 tcp 1000 ------- 1 1.0 3.1 24 39
+ 0.74232 3 2 ack 40 ------- 1 3.1 1.0 24 57
- 0.74232 3 2 ack 40 ------- 1 3.1 1.0 24 57
r 0.74464 3 2 ack 40 ------- 1 3.1 1.0 18 49
+ 0.74464 2 1 ack 40 ------- 1 3.1 1.0 18 49
- 0.74464 2 1 ack 40 ------- 1 3.1 1.0 18 49
r 0.748704 2 1 ack 40 ------- 1 3.1 1.0 16 47
+ 0.748704 1 2 tcp 1000 ------- 1 1.0 3.1 33 58
- 0.748704 1 2 tcp 1000 ------- 1 1.0 3.1 33 58
+ 0.748704 1 2 tcp 1000 ------- 1 1.0 3.1 34 59
- 0.750304 1 2 tcp 1000 ------- 1 1.0 3.1 34 59
r 0.75032 2 3 tcp 1000 ------- 1 1.0 3.1 25 40
+ 0.75032 3 2 ack 40 ------- 1 3.1 1.0 25 60
- 0.75032 3 2 ack 40 ------- 1 3.1 1.0 25 60
r 0.75264 3 2 ack 40 ------- 1 3.1 1.0 19 50
+ 0.75264 2 1 ack 40 ------- 1 3.1 1.0 19 50
- 0.75264 2 1 ack 40 ------- 1 3.1 1.0 19 50
r 0.756704 2 1 ack 40 ------- 1 3.1 1.0 17 48
+ 0.756704 1 2 tcp 1000 ------- 1 1.0 3.1 35 61
- 0.756704 1 2 tcp 1000 ------- 1 1.0 3.1 35 61
+ 0.756704 1 2 tcp 1000 ------- 1 1.0 3.1 36 62
- 0.758304 1 2 tcp 1000 ------- 1 1.0 3.1 36 62
r 0.75832 2 3 tcp 1000 ------- 1 1.0 3.1 26 41
+ 0.75832 3 2 ack 40 ------- 1 3.1 1.0 26 63
- 0.75832 3 2 ack 40 ------- 1 3.1 1.0 26 63
r 0.76064 3 2 ack 40 ------- 1 3.1 1.0 20 51
+ 0.76064 2 1 ack 40 ------- 1 3.1 1.0 20 51
- 0.76064 2 1 ack 40 ------- 1 3.1 1.0 20 51
r 0.762304 1 2 tcp 1000 ------- 1 1.0 3.1 31 55
+ 0.762304 2 3 tcp 1000 ------- 1 1.0 3.1 31 55
- 0.762304 2 3 tcp 1000 ------- 1 1.0 3.1 31 55
r 0.763904 1 2 tcp 1000 ------- 1 1.0 3.1 32 56
+ 0.763904 2 3 tcp 1000 ------- 1 1.0 3.1 32 56
r 0.764704 2 1 ack 40 ------- 1 3.1 1.0 18 49
+ 0.764704 1 2 tcp 1000 ------- 1 1.0 3.1 37 64
- 0.764704 1 2 tcp 1000 ------- 1 1.0 3.1 37 64
+ 0.764704 1 2 tcp 1000 ------- 1 1.0 3.1 38 65
- 0.766304 1 2 tcp 1000 ------- 1 1.0 3.1 38 65
r 0.76632 2 3 tcp 1000 ------- 1 1.0 3.1 27 42
+ 0.76632 3 2 ack 40 ------- 1 3.1 1.0 27 66
- 0.76632 3 2 ack 40 ------- 1 3.1 1.0 27 66
r 0.76864 3 2 ack 40 ------- 1 3.1 1.0 21 52
+ 0.76864 2 1 ack 40 ------- 1 3.1 1.0 21 52
- 0.76864 2 1 ack 40 ------- 1 3.1 1.0 21 52
r 0.770304 1 2 tcp 1000 ------- 1 1.0 3.1 33 58
+ 0.770304 2 3 tcp 1000 ------- 1 1.0 3.1 33 58
- 0.770304 2 3 tcp 1000 ------- 1 1.0 3.1 32 56
r 0.771904 1 2 tcp 1000 ------- 1 1.0 3.1 34 59
+ 0.771904 2 3 tcp 1000 ------- 1 1.0 3.1 34 59
r 0.772704 2 1 ack 40 ------- 1 3.1 1.0 19 50
+ 0.772704 1 2 tcp 1000 ------- 1 1.0 3.1 39 67
- 0.772704 1 2 tcp 1000 ------- 1 1.0 3.1 39 67
+ 0.772704 1 2 tcp 1000 ------- 1 1.0 3.1 40 68
- 0.774304 1 2 tcp 1000 ------- 1 1.0 3.1 40 68
r 0.77432 2 3 tcp 1000 ------- 1 1.0 3.1 28 43
+ 0.77432 3 2 ack 40 ------- 1 3.1 1.0 28 69
- 0.77432 3 2 ack 40 ------- 1 3.1 1.0 28 69
r 0.77664 3 2 ack 40 ------- 1 3.1 1.0 22 53
+ 0.77664 2 1 ack 40 ------- 1 3.1 1.0 22 53
- 0.77664 2 1 ack 40 ------- 1 3.1 1.0 22 53
r 0.778304 1 2 tcp 1000 ------- 1 1.0 3.1 35 61
+ 0.778304 2 3 tcp 1000 ------- 1 1.0 3.1 35 61
- 0.778304 2 3 tcp 1000 ------- 1 1.0 3.1 33 58
r 0.779904 1 2 tcp 1000 ------- 1 1.0 3.1 36 62
+ 0.779904 2 3 tcp 1000 ------- 1 1.0 3.1 36 62
r 0.780704 2 1 ack 40 ------- 1 3.1 1.0 20 51
+ 0.780704 1 2 tcp 1000 ------- 1 1.0 3.1 41 70
- 0.780704 1 2 tcp 1000 ------- 1 1.0 3.1 41 70
+ 0.780704 1 2 tcp 1000 ------- 1 1.0 3.1 42 71
- 0.782304 1 2 tcp 1000 ------- 1 1.0 3.1 42 71
r 0.78232 2 3 tcp 1000 ------- 1 1.0 3.1 29 44
+ 0.78232 3 2 ack 40 ------- 1 3.1 1.0 29 72
- 0.78232 3 2 ack 40 ------- 1 3.1 1.0 29 72
r 0.78464 3 2 ack 40 ------- 1 3.1 1.0 23 54
+ 0.78464 2 1 ack 40 ------- 1 3.1 1.0 23 54
- 0.78464 2 1 ack 40 ------- 1 3.1 1.0 23 54
r 0.786304 1 2 tcp 1000 ------- 1 1.0 3.1 37 64
+ 0.786304 2 3 tcp 1000 ------- 1 1.0 3.1 37 64
- 0.786304 2 3 tcp 1000 ------- 1 1.0 3.1 34 59
r 0.787904 1 2 tcp 1000 ------- 1 1.0 3.1 38 65
+ 0.787904 2 3 tcp 1000 ------- 1 1.0 3.1 38 65
r 0.788704 2 1 ack 40 ------- 1 3.1 1.0 21 52
+ 0.788704 1 2 tcp 1000 ------- 1 1.0 3.1 43 73
- 0.788704 1 2 tcp 1000 ------- 1 1.0 3.1 43 73
+ 0.788704 1 2 tcp 1000 ------- 1 1.0 3.1 44 74
- 0.790304 1 2 tcp 1000 ------- 1 1.0 3.1 44 74
r 0.79032 2 3 tcp 1000 ------- 1 1.0 3.1 30 45
+ 0.79032 3 2 ack 40 ------- 1 3.1 1.0 30 75
- 0.79032 3 2 ack 40 ------- 1 3.1 1.0 30 75
r 0.79264 3 2 ack 40 ------- 1 3.1 1.0 24 57
+ 0.79264 2 1 ack 40 ------- 1 3.1 1.0 24 57
- 0.79264 2 1 ack 40 ------- 1 3.1 1.0 24 57
r 0.794304 1 2 tcp 1000 ------- 1 1.0 3.1 39 67
+ 0.794304 2 3 tcp 1000 ------- 1 1.0 3.1 39 67
- 0.794304 2 3 tcp 1000 ------- 1 1.0 3.1 35 61
r 0.795904 1 2 tcp 1000 ------- 1 1.0 3.1 40 68
+ 0.795904 2 3 tcp 1000 ------- 1 1.0 3.1 40 68
r 0.796704 2 1 ack 40 ------- 1 3.1 1.0 22 53
+ 0.796704 1 2 tcp 1000 ------- 1 1.0 3.1 45 76
- 0.796704 1 2 tcp 1000 ------- 1 1.0 3.1 45 76
+ 0.796704 1 2 tcp 1000 ------- 1 1.0 3.1 46 77
- 0.798304 1 2 tcp 1000 ------- 1 1.0 3.1 46 77
r 0.80064 3 2 ack 40 ------- 1 3.1 1.0 25 60
+ 0.80064 2 1 ack 40 ------- 1 3.1 1.0 25 60
- 0.80064 2 1 ack 40 ------- 1 3.1 1.0 25 60
r 0.802304 1 2 tcp 1000 ------- 1 1.0 3.1 41 70
+ 0.802304 2 3 tcp 1000 ------- 1 1.0 3.1 41 70
- 0.802304 2 3 tcp 1000 ------- 1 1.0 3.1 36 62
r 0.803904 1 2 tcp 1000 ------- 1 1.0 3.1 42 71
+ 0.803904 2 3 tcp 1000 ------- 1 1.0 3.1 42 71
r 0.804704 2 1 ack 40 ------- 1 3.1 1.0 23 54
+ 0.804704 1 2 tcp 1000 ------- 1 1.0 3.1 47 78
- 0.804704 1 2 tcp 1000 ------- 1 1.0 3.1 47 78
+ 0.804704 1 2 tcp 1000 ------- 1 1.0 3.1 48 79
- 0.806304 1 2 tcp 1000 ------- 1 1.0 3.1 48 79
r 0.80864 3 2 ack 40 ------- 1 3.1 1.0 26 63
+ 0.80864 2 1 ack 40 ------- 1 3.1 1.0 26 63
- 0.80864 2 1 ack 40 ------- 1 3.1 1.0 26 63
r 0.810304 1 2 tcp 1000 ------- 1 1.0 3.1 43 73
+ 0.810304 2 3 tcp 1000 ------- 1 1.0 3.1 43 73
- 0.810304 2 3 tcp 1000 ------- 1 1.0 3.1 37 64
r 0.811904 1 2 tcp 1000 ------- 1 1.0 3.1 44 74
+ 0.811904 2 3 tcp 1000 ------- 1 1.0 3.1 44 74
r 0.812704 2 1 ack 40 ------- 1 3.1 1.0 24 57
+ 0.812704 1 2 tcp 1000 ------- 1 1.0 3.1 49 80
- 0.812704 1 2 tcp 1000 ------- 1 1.0 3.1 49 80
+ 0.812704 1 2 tcp 1000 ------- 1 1.0 3.1 50 81
- 0.814304 1 2 tcp 1000 ------- 1 1.0 3.1 50 81
r 0.81664 3 2 ack 40 ------- 1 3.1 1.0 27 66
+ 0.81664 2 1 ack 40 ------- 1 3.1 1.0 27 66
- 0.81664 2 1 ack 40 ------- 1 3.1 1.0 27 66
r 0.818304 1 2 tcp 1000 ------- 1 1.0 3.1 45 76
+ 0.818304 2 3 tcp 1000 ------- 1 1.0 3.1 45 76
- 0.818304 2 3 tcp 1000 ------- 1 1.0 3.1 38 65
r 0.819904 1 2 tcp 1000 ------- 1 1.0 3.1 46 77
+ 0.819904 2 3 tcp 1000 ------- 1 1.0 3.1 46 77
r 0.820304 2 3 tcp 1000 ------- 1 1.0 3.1 31 55
+ 0.820304 3 2 ack 40 ------- 1 3.1 1.0 31 82
- 0.820304 3 2 ack 40 ------- 1 3.1 1.0 31 82
r 0.820704 2 1 ack 40 ------- 1 3.1 1.0 25 60
+ 0.820704 1 2 tcp 1000 ------- 1 1.0 3.1 51 83
- 0.820704 1 2 tcp 1000 ------- 1 1.0 3.1 51 83
+ 0.820704 1 2 tcp 1000 ------- 1 1.0 3.1 52 84
- 0.822304 1 2 tcp 1000 ------- 1 1.0 3.1 52 84
r 0.82464 3 2 ack 40 ------- 1 3.1 1.0 28 69
+ 0.82464 2 1 ack 40 ------- 1 3.1 1.0 28 69
- 0.82464 2 1 ack 40 ------- 1 3.1 1.0 28 69
r 0.826304 1 2 tcp 1000 ------- 1 1.0 3.1 47 78
+ 0.826304 2 3 tcp 1000 ------- 1 1.0 3.1 47 78
- 0.826304 2 3 tcp 1000 ------- 1 1.0 3.1 39 67
r 0.827904 1 2 tcp 1000 ------- 1 1.0 3.1 48 79
+ 0.827904 2 3 tcp 1000 ------- 1 1.0 3.1 48 79
r 0.828304 2 3 tcp 1000 ------- 1 1.0 3.1 32 56
+ 0.828304 3 2 ack 40 ------- 1 3.1 1.0 32 85
- 0.828304 3 2 ack 40 ------- 1 3.1 1.0 32 85
r 0.828704 2 1 ack 40 ------- 1 3.1 1.0 26 63
+ 0.828704 1 2 tcp 1000 ------- 1 1.0 3.1 53 86
- 0.828704 1 2 tcp 1000 ------- 1 1.0 3.1 53 86
+ 0.828704 1 2 tcp 1000 ------- 1 1.0 3.1 54 87
- 0.830304 1 2 tcp 1000 ------- 1 1.0 3.1 54 87
r 0.83264 3 2 ack 40 ------- 1 3.1 1.0 29 72
+ 0.83264 2 1 ack 40 ------- 1 3.1 1.0 29 72
- 0.83264 2 1 ack 40 ------- 1 3.1 1.0 29 72
r 0.834304 1 2 tcp 1000 ------- 1 1.0 3.1 49 80
+ 0.834304 2 3 tcp 1000 ------- 1 1.0 3.1 49 80
- 0.834304 2 3 tcp 1000 ------- 1 1.0 3.1 40 68
r 0.835904 1 2 tcp 1000 ------- 1 1.0 3.1 50 81
+ 0.835904 2 3 tcp 1000 ------- 1 1.0 3.1 50 81
r 0.836304 2 3 tcp 1000 ------- 1 1.0 3.1 33 58
+ 0.836304 3 2 ack 40 ------- 1 3.1 1.0 33 88
- 0.836304 3 2 ack 40 ------- 1 3.1 1.0 33 88
r 0.836704 2 1 ack 40 ------- 1 3.1 1.0 27 66
+ 0.836704 1 2 tcp 1000 ------- 1 1.0 3.1 55 89
- 0.836704 1 2 tcp 1000 ------- 1 1.0 3.1 55 89
+ 0.836704 1 2 tcp 1000 ------- 1 1.0 3.1 56 90
- 0.838304 1 2 tcp 1000 ------- 1 1.0 3.1 56 90
r 0.84064 3 2 ack 40 ------- 1 3.1 1.0 30 75
+ 0.84064 2 1 ack 40 ------- 1 3.1 1.0 30 75
- 0.84064 2 1 ack 40 ------- 1 3.1 1.0 30 75
r 0.842304 1 2 tcp 1000 ------- 1 1.0 3.1 51 83
+ 0.842304 2 3 tcp 1000 ------- 1 1.0 3.1 51 83
- 0.842304 2 3 tcp 1000 ------- 1 1.0 3.1 41 70
r 0.843904 1 2 tcp 1000 ------- 1 1.0 3.1 52 84
+ 0.843904 2 3 tcp 1000 ------- 1 1.0 3.1 52 84
r 0.844304 2 3 tcp 1000 ------- 1 1.0 3.1 34 59
+ 0.844304 3 2 ack 40 ------- 1 3.1 1.0 34 91
- 0.844304 3 2 ack 40 ------- 1 3.1 1.0 34 91
r 0.844704 2 1 ack 40 ------- 1 3.1 1.0 28 69
+ 0.844704 1 2 tcp 1000 ------- 1 1.0 3.1 57 92
- 0.844704 1 2 tcp 1000 ------- 1 1.0 3.1 57 92
+ 0.844704 1 2 tcp 1000 ------- 1 1.0 3.1 58 93
- 0.846304 1 2 tcp 1000 ------- 1 1.0 3.1 58 93
r 0.850304 1 2 tcp 1000 ------- 1 1.0 3.1 53 86
+ 0.850304 2 3 tcp 1000 ------- 1 1.0 3.1 53 86
- 0.850304 2 3 tcp 1000 ------- 1 1.0 3.1 42 71
r 0.851904 1 2 tcp 1000 ------- 1 1.0 3.1 54 87
+ 0.851904 2 3 tcp 1000 ------- 1 1.0 3.1 54 87
r 0.852304 2 3 tcp 1000 ------- 1 1.0 3.1 35 61
+ 0.852304 3 2 ack 40 ------- 1 3.1 1.0 35 94
- 0.852304 3 2 ack 40 ------- 1 3.1 1.0 35 94
r 0.852704 2 1 ack 40 ------- 1 3.1 1.0 29 72
+ 0.852704 1 2 tcp 1000 ------- 1 1.0 3.1 59 95
- 0.852704 1 2 tcp 1000 ------- 1 1.0 3.1 59 95
+ 0.852704 1 2 tcp 1000 ------- 1 1.0 3.1 60 96
- 0.854304 1 2 tcp 1000 ------- 1 1.0 3.1 60 96
r 0.858304 1 2 tcp 1000 ------- 1 1.0 3.1 55 89
+ 0.858304 2 3 tcp 1000 ------- 1 1.0 3.1 55 89
- 0.858304 2 3 tcp 1000 ------- 1 1.0 3.1 43 73
r 0.859904 1 2 tcp 1000 ------- 1 1.0 3.1 56 90
+ 0.859904 2 3 tcp 1000 ------- 1 1.0 3.1 56 90
r 0.860304 2 3 tcp 1000 ------- 1 1.0 3.1 36 62
+ 0.860304 3 2 ack 40 ------- 1 3.1 1.0 36 97
- 0.860304 3 2 ack 40 ------- 1 3.1 1.0 36 97
r 0.860704 2 1 ack 40 ------- 1 3.1 1.0 30 75
+ 0.860704 1 2 tcp 1000 ------- 1 1.0 3.1 61 98
- 0.860704 1 2 tcp 1000 ------- 1 1.0 3.1 61 98
+ 0.860704 1 2 tcp 1000 ------- 1 1.0 3.1 62 99
- 0.862304 1 2 tcp 1000 ------- 1 1.0 3.1 62 99
r 0.866304 1 2 tcp 1000 ------- 1 1.0 3.1 57 92
+ 0.866304 2 3 tcp 1000 ------- 1 1.0 3.1 57 92
- 0.866304 2 3 tcp 1000 ------- 1 1.0 3.1 44 74
r 0.867904 1 2 tcp 1000 ------- 1 1.0 3.1 58 93
+ 0.867904 2 3 tcp 1000 ------- 1 1.0 3.1 58 93
r 0.868304 2 3 tcp 1000 ------- 1 1.0 3.1 37 64
+ 0.868304 3 2 ack 40 ------- 1 3.1 1.0 37 100
- 0.868304 3 2 ack 40 ------- 1 3.1 1.0 37 100
r 0.870624 3 2 ack 40 ------- 1 3.1 1.0 31 82
+ 0.870624 2 1 ack 40 ------- 1 3.1 1.0 31 82
- 0.870624 2 1 ack 40 ------- 1 3.1 1.0 31 82
r 0.874304 1 2 tcp 1000 ------- 1 1.0 3.1 59 95
+ 0.874304 2 3 tcp 1000 ------- 1 1.0 3.1 59 95
- 0.874304 2 3 tcp 1000 ------- 1 1.0 3.1 45 76
r 0.875904 1 2 tcp 1000 ------- 1 1.0 3.1 60 96
+ 0.875904 2 3 tcp 1000 ------- 1 1.0 3.1 60 96
r 0.876304 2 3 tcp 1000 ------- 1 1.0 3.1 38 65
+ 0.876304 3 2 ack 40 ------- 1 3.1 1.0 38 101
- 0.876304 3 2 ack 40 ------- 1 3.1 1.0 38 101
r 0.878624 3 2 ack 40 ------- 1 3.1 1.0 32 85
+ 0.878624 2 1 ack 40 ------- 1 3.1 1.0 32 85
- 0.878624 2 1 ack 40 ------- 1 3.1 1.0 32 85
r 0.882304 1 2 tcp 1000 ------- 1 1.0 3.1 61 98
+ 0.882304 2 3 tcp 1000 ------- 1 1.0 3.1 61 98
- 0.882304 2 3 tcp 1000 ------- 1 1.0 3.1 46 77
r 0.883904 1 2 tcp 1000 ------- 1 1.0 3.1 62 99
+ 0.883904 2 3 tcp 1000 ------- 1 1.0 3.1 62 99
r 0.884304 2 3 tcp 1000 ------- 1 1.0 3.1 39 67
+ 0.884304 3 2 ack 40 ------- 1 3.1 1.0 39 102
- 0.884304 3 2 ack 40 ------- 1 3.1 1.0 39 102
r 0.886624 3 2 ack 40 ------- 1 3.1 1.0 33 88
+ 0.886624 2 1 ack 40 ------- 1 3.1 1.0 33 88
- 0.886624 2 1 ack 40 ------- 1 3.1 1.0 33 88
- 0.890304 2 3 tcp 1000 ------- 1 1.0 3.1 47 78
r 0.890688 2 1 ack 40 ------- 1 3.1 1.0 31 82
+ 0.890688 1 2 tcp 1000 ------- 1 1.0 3.1 63 103
- 0.890688 1 2 tcp 1000 ------- 1 1.0 3.1 63 103
+ 0.890688 1 2 tcp 1000 ------- 1 1.0 3.1 64 104
- 0.892288 1 2 tcp 1000 ------- 1 1.0 3.1 64 104
r 0.892304 2 3 tcp 1000 ------- 1 1.0 3.1 40 68
+ 0.892304 3 2 ack 40 ------- 1 3.1 1.0 40 105
- 0.892304 3 2 ack 40 ------- 1 3.1 1.0 40 105
r 0.894624 3 2 ack 40 ------- 1 3.1 1.0 34 91
+ 0.894624 2 1 ack 40 ------- 1 3.1 1.0 34 91
- 0.894624 2 1 ack 40 ------- 1 3.1 1.0 34 91
- 0.898304 2 3 tcp 1000 ------- 1 1.0 3.1 48 79
r 0.898688 2 1 ack 40 ------- 1 3.1 1.0 32 85
+ 0.898688 1 2 tcp 1000 ------- 1 1.0 3.1 65 106
- 0.898688 1 2 tcp 1000 ------- 1 1.0 3.1 65 106
+ 0.898688 1 2 tcp 1000 ------- 1 1.0 3.1 66 107
- 0.900288 1 2 tcp 1000 ------- 1 1.0 3.1 66 107
r 0.900304 2 3 tcp 1000 ------- 1 1.0 3.1 41 70
+ 0.900304 3 2 ack 40 ------- 1 3.1 1.0 41 108
- 0.900304 3 2 ack 40 ------- 1 3.1 1.0 41 108
r 0.902624 3 2 ack 40 ------- 1 3.1 1.0 35 94
+ 0.902624 2 1 ack 40 ------- 1 3.1 1.0 35 94
- 0.902624 2 1 ack 40 ------- 1 3.1 1.0 35 94
- 0.906304 2 3 tcp 1000 ------- 1 1.0 3.1 49 80
r 0.906688 2 1 ack 40 ------- 1 3.1 1.0 33 88
+ 0.906688 1 2 tcp 1000 ------- 1 1.0 3.1 67 109
- 0.906688 1 2 tcp 1000 ------- 1 1.0 3.1 67 109
+ 0.906688 1 2 tcp 1000 ------- 1 1.0 3.1 68 110
- 0.908288 1 2 tcp 1000 ------- 1 1.0 3.1 68 110
r 0.908304 2 3 tcp 1000 ------- 1 1.0 3.1 42 71
+ 0.908304 3 2 ack 40 ------- 1 3.1 1.0 42 111
- 0.908304 3 2 ack 40 ------- 1 3.1 1.0 42 111
r 0.910624 3 2 ack 40 ------- 1 3.1 1.0 36 97
+ 0.910624 2 1 ack 40 ------- 1 3.1 1.0 36 97
- 0.910624 2 1 ack 40 ------- 1 3.1 1.0 36 97
r 0.912288 1 2 tcp 1000 ------- 1 1.0 3.1 63 103
+ 0.912288 2 3 tcp 1000 ------- 1 1.0 3.1 63 103
r 0.913888 1 2 tcp 1000 ------- 1 1.0 3.1 64 104
+ 0.913888 2 3 tcp 1000 ------- 1 1.0 3.1 64 104
- 0.914304 2 3 tcp 1000 ------- 1 1.0 3.1 50 81
r 0.914688 2 1 ack 40 ------- 1 3.1 1.0 34 91
+ 0.914688 1 2 tcp 1000 ------- 1 1.0 3.1 69 112
- 0.914688 1 2 tcp 1000 ------- 1 1.0 3.1 69 112
+ 0.914688 1 2 tcp 1000 ------- 1 1.0 3.1 70 113
- 0.916288 1 2 tcp 1000 ------- 1 1.0 3.1 70 113
r 0.916304 2 3 tcp 1000 ------- 1 1.0 3.1 43 73
+ 0.916304 3 2 ack 40 ------- 1 3.1 1.0 43 114
- 0.916304 3 2 ack 40 ------- 1 3.1 1.0 43 114
r 0.918624 3 2 ack 40 ------- 1 3.1 1.0 37 100
+ 0.918624 2 1 ack 40 ------- 1 3.1 1.0 37 100
- 0.918624 2 1 ack 40 ------- 1 3.1 1.0 37 100
r 0.920288 1 2 tcp 1000 ------- 1 1.0 3.1 65 106
+ 0.920288 2 3 tcp 1000 ------- 1 1.0 3.1 65 106
r 0.921888 1 2 tcp 1000 ------- 1 1.0 3.1 66 107
+ 0.921888 2 3 tcp 1000 ------- 1 1.0 3.1 66 107
- 0.922304 2 3 tcp 1000 ------- 1 1.0 3.1 51 83
r 0.922688 2 1 ack 40 ------- 1 3.1 1.0 35 94
+ 0.922688 1 2 tcp 1000 ------- 1 1.0 3.1 71 115
- 0.922688 1 2 tcp 1000 ------- 1 1.0 3.1 71 115
+ 0.922688 1 2 tcp 1000 ------- 1 1.0 3.1 72 116
- 0.924288 1 2 tcp 1000 ------- 1 1.0 3.1 72 116
r 0.924304 2 3 tcp 1000 ------- 1 1.0 3.1 44 74
+ 0.924304 3 2 ack 40 ------- 1 3.1 1.0 44 117
- 0.924304 3 2 ack 40 ------- 1 3.1 1.0 44 117
r 0.926624 3 2 ack 40 ------- 1 3.1 1.0 38 101
+ 0.926624 2 1 ack 40 ------- 1 3.1 1.0 38 101
- 0.926624 2 1 ack 40 ------- 1 3.1 1.0 38 101
r 0.928288 1 2 tcp 1000 ------- 1 1.0 3.1 67 109
+ 0.928288 2 3 tcp 1000 ------- 1 1.0 3.1 67 109
r 0.929888 1 2 tcp 1000 ------- 1 1.0 3.1 68 110
+ 0.929888 2 3 tcp 1000 ------- 1 1.0 3.1 68 110
- 0.930304 2 3 tcp 1000 ------- 1 1.0 3.1 52 84
r 0.930688 2 1 ack 40 ------- 1 3.1 1.0 36 97
+ 0.930688 1 2 tcp 1000 ------- 1 1.0 3.1 73 118
- 0.930688 1 2 tcp 1000 ------- 1 1.0 3.1 73 118
+ 0.930688 1 2 tcp 1000 ------- 1 1.0 3.1 74 119
- 0.932288 1 2 tcp 1000 ------- 1 1.0 3.1 74 119
r 0.932304 2 3 tcp 1000 ------- 1 1.0 3.1 45 76
+ 0.932304 3 2 ack 40 ------- 1 3.1 1.0 45 120
- 0.932304 3 2 ack 40 ------- 1 3.1 1.0 45 120
r 0.934624 3 2 ack 40 ------- 1 3.1 1.0 39 102
+ 0.934624 2 1 ack 40 ------- 1 3.1 1.0 39 102
- 0.934624 2 1 ack 40 ------- 1 3.1 1.0 39 102
r 0.936288 1 2 tcp 1000 ------- 1 1.0 3.1 69 112
+ 0.936288 2 3 tcp 1000 ------- 1 1.0 3.1 69 112
r 0.937888 1 2 tcp 1000 ------- 1 1.0 3.1 70 113
+ 0.937888 2 3 tcp 1000 ------- 1 1.0 3.1 70 113
- 0.938304 2 3 tcp 1000 ------- 1 1.0 3.1 53 86
r 0.938688 2 1 ack 40 ------- 1 3.1 1.0 37 100