+ 0 1 2 tcp 40 ------- 1 1.0 3.1 0 0
- 0 1 2 tcp 40 ------- 1 1.0 3.1 0 0
r 0.02128 1 2 tcp 40 ------- 1 1.0 3.1 0 0
+ 0.02128 2 3 tcp 40 ------- 1 1.0 3.1 0 0
- 0.02128 2 3 tcp 40 ------- 1 1.0 3.1 0 0
r 0.04768 2 3 tcp 40 ------- 1 1.0 3.1 0 0
+ 0.04768 3 2 ack 40 ------- 1 3.1 1.0 0 1
- 0.04768 3 2 ack 40 ------- 1 3.1 1.0 0 1
r 0.07408 3 2 ack 40 ------- 1 3.1 1.0 0 1
+ 0.07408 2 1 ack 40 ------- 1 3.1 1.0 0 1
- 0.07408 2 1 ack 40 ------- 1 3.1 1.0 0 1
r 0.09536 2 1 ack 40 ------- 1 3.1 1.0 0 1
+ 0.09536 1 2 tcp 1040 ------- 1 1.0 3.1 1 2
- 0.09536 1 2 tcp 1040 ------- 1 1.0 3.1 1 2
+ 0.09536 1 2 tcp 1040 ------- 1 1.0 3.1 2 3
- 0.12864 1 2 tcp 1040 ------- 1 1.0 3.1 2 3
r 0.14864 1 2 tcp 1040 ------- 1 1.0 3.1 1 2
+ 0.14864 2 3 tcp 1040 ------- 1 1.0 3.1 1 2
- 0.14864 2 3 tcp 1040 ------- 1 1.0 3.1 1 2
r 0.18192 1 2 tcp 1040 ------- 1 1.0 3.1 2 3
+ 0.18192 2 3 tcp 1040 ------- 1 1.0 3.1 2 3
- 0.31504 2 3 tcp 1040 ------- 1 1.0 3.1 2 3
r 0.33504 2 3 tcp 1040 ------- 1 1.0 3.1 1 2
+ 0.33504 3 2 ack 40 ------- 1 3.1 1.0 1 4
- 0.33504 3 2 ack 40 ------- 1 3.1 1.0 1 4
r 0.36144 3 2 ack 40 ------- 1 3.1 1.0 1 4
+ 0.36144 2 1 ack 40 ------- 1 3.1 1.0 1 4
- 0.36144 2 1 ack 40 ------- 1 3.1 1.0 1 4
r 0.38272 2 1 ack 40 ------- 1 3.1 1.0 1 4
+ 0.38272 1 2 tcp 1040 ------- 1 1.0 3.1 3 5
- 0.38272 1 2 tcp 1040 ------- 1 1.0 3.1 3 5
+ 0.38272 1 2 tcp 1040 ------- 1 1.0 3.1 4 6
- 0.416 1 2 tcp 1040 ------- 1 1.0 3.1 4 6
r 0.436 1 2 tcp 1040 ------- 1 1.0 3.1 3 5
+ 0.436 2 3 tcp 1040 ------- 1 1.0 3.1 3 5
r 0.46928 1 2 tcp 1040 ------- 1 1.0 3.1 4 6
+ 0.46928 2 3 tcp 1040 ------- 1 1.0 3.1 4 6
- 0.48144 2 3 tcp 1040 ------- 1 1.0 3.1 3 5
r 0.50144 2 3 tcp 1040 ------- 1 1.0 3.1 2 3
+ 0.50144 3 2 ack 40 ------- 1 3.1 1.0 2 7
- 0.50144 3 2 ack 40 ------- 1 3.1 1.0 2 7
r 0.52784 3 2 ack 40 ------- 1 3.1 1.0 2 7
+ 0.52784 2 1 ack 40 ------- 1 3.1 1.0 2 7
- 0.52784 2 1 ack 40 ------- 1 3.1 1.0 2 7
r 0.54912 2 1 ack 40 ------- 1 3.1 1.0 2 7
+ 0.54912 1 2 tcp 1040 ------- 1 1.0 3.1 5 8
- 0.54912 1 2 tcp 1040 ------- 1 1.0 3.1 5 8
+ 0.54912 1 2 tcp 1040 ------- 1 1.0 3.1 6 9
- 0.5824 1 2 tcp 1040 ------- 1 1.0 3.1 6 9
r 0.6024 1 2 tcp 1040 ------- 1 1.0 3.1 5 8
+ 0.6024 2 3 tcp 1040 ------- 1 1.0 3.1 5 8
r 0.63568 1 2 tcp 1040 ------- 1 1.0 3.1 6 9
+ 0.63568 2 3 tcp 1040 ------- 1 1.0 3.1 6 9
- 0.64784 2 3 tcp 1040 ------- 1 1.0 3.1 4 6
r 0.66784 2 3 tcp 1040 ------- 1 1.0 3.1 3 5
+ 0.66784 3 2 ack 40 ------- 1 3.1 1.0 3 10
- 0.66784 3 2 ack 40 ------- 1 3.1 1.0 3 10
r 0.69424 3 2 ack 40 ------- 1 3.1 1.0 3 10
+ 0.69424 2 1 ack 40 ------- 1 3.1 1.0 3 10
- 0.69424 2 1 ack 40 ------- 1 3.1 1.0 3 10
r 0.71552 2 1 ack 40 ------- 1 3.1 1.0 3 10
+ 0.71552 1 2 tcp 1040 ------- 1 1.0 3.1 7 11
- 0.71552 1 2 tcp 1040 ------- 1 1.0 3.1 7 11
+ 0.71552 1 2 tcp 1040 ------- 1 1.0 3.1 8 12
- 0.7488 1 2 tcp 1040 ------- 1 1.0 3.1 8 12
r 0.7688 1 2 tcp 1040 ------- 1 1.0 3.1 7 11
+ 0.7688 2 3 tcp 1040 ------- 1 1.0 3.1 7 11
r 0.80208 1 2 tcp 1040 ------- 1 1.0 3.1 8 12
+ 0.80208 2 3 tcp 1040 ------- 1 1.0 3.1 8 12
- 0.81424 2 3 tcp 1040 ------- 1 1.0 3.1 5 8
r 0.83424 2 3 tcp 1040 ------- 1 1.0 3.1 4 6
+ 0.83424 3 2 ack 40 ------- 1 3.1 1.0 4 13
- 0.83424 3 2 ack 40 ------- 1 3.1 1.0 4 13
r 0.86064 3 2 ack 40 ------- 1 3.1 1.0 4 13
+ 0.86064 2 1 ack 40 ------- 1 3.1 1.0 4 13
- 0.86064 2 1 ack 40 ------- 1 3.1 1.0 4 13
r 0.88192 2 1 ack 40 ------- 1 3.1 1.0 4 13
+ 0.88192 1 2 tcp 1040 ------- 1 1.0 3.1 9 14
- 0.88192 1 2 tcp 1040 ------- 1 1.0 3.1 9 14
+ 0.88192 1 2 tcp 1040 ------- 1 1.0 3.1 10 15
- 0.9152 1 2 tcp 1040 ------- 1 1.0 3.1 10 15
r 0.9352 1 2 tcp 1040 ------- 1 1.0 3.1 9 14
+ 0.9352 2 3 tcp 1040 ------- 1 1.0 3.1 9 14
r 0.96848 1 2 tcp 1040 ------- 1 1.0 3.1 10 15
+ 0.96848 2 3 tcp 1040 ------- 1 1.0 3.1 10 15
- 0.98064 2 3 tcp 1040 ------- 1 1.0 3.1 6 9
r 1.00064 2 3 tcp 1040 ------- 1 1.0 3.1 5 8
+ 1.00064 3 2 ack 40 ------- 1 3.1 1.0 5 16
- 1.00064 3 2 ack 40 ------- 1 3.1 1.0 5 16
r 1.02704 3 2 ack 40 ------- 1 3.1 1.0 5 16
+ 1.02704 2 1 ack 40 ------- 1 3.1 1.0 5 16
- 1.02704 2 1 ack 40 ------- 1 3.1 1.0 5 16
r 1.04832 2 1 ack 40 ------- 1 3.1 1.0 5 16
+ 1.04832 1 2 tcp 1040 ------- 1 1.0 3.1 11 17
- 1.04832 1 2 tcp 1040 ------- 1 1.0 3.1 11 17
+ 1.04832 1 2 tcp 1040 ------- 1 1.0 3.1 12 18
- 1.0816 1 2 tcp 1040 ------- 1 1.0 3.1 12 18
r 1.1016 1 2 tcp 1040 ------- 1 1.0 3.1 11 17
+ 1.1016 2 3 tcp 1040 ------- 1 1.0 3.1 11 17
r 1.13488 1 2 tcp 1040 ------- 1 1.0 3.1 12 18
+ 1.13488 2 3 tcp 1040 ------- 1 1.0 3.1 12 18
- 1.14704 2 3 tcp 1040 ------- 1 1.0 3.1 7 11
r 1.16704 2 3 tcp 1040 ------- 1 1.0 3.1 6 9
+ 1.16704 3 2 ack 40 ------- 1 3.1 1.0 6 19
- 1.16704 3 2 ack 40 ------- 1 3.1 1.0 6 19
r 1.19344 3 2 ack 40 ------- 1 3.1 1.0 6 19
+ 1.19344 2 1 ack 40 ------- 1 3.1 1.0 6 19
- 1.19344 2 1 ack 40 ------- 1 3.1 1.0 6 19
r 1.21472 2 1 ack 40 ------- 1 3.1 1.0 6 19
+ 1.21472 1 2 tcp 1040 ------- 1 1.0 3.1 13 20
- 1.21472 1 2 tcp 1040 ------- 1 1.0 3.1 13 20
+ 1.21472 1 2 tcp 1040 ------- 1 1.0 3.1 14 21
- 1.248 1 2 tcp 1040 ------- 1 1.0 3.1 14 21
r 1.268 1 2 tcp 1040 ------- 1 1.0 3.1 13 20
+ 1.268 2 3 tcp 1040 ------- 1 1.0 3.1 13 20
r 1.30128 1 2 tcp 1040 ------- 1 1.0 3.1 14 21
+ 1.30128 2 3 tcp 1040 ------- 1 1.0 3.1 14 21
- 1.31344 2 3 tcp 1040 ------- 1 1.0 3.1 8 12
r 1.33344 2 3 tcp 1040 ------- 1 1.0 3.1 7 11
+ 1.33344 3 2 ack 40 ------- 1 3.1 1.0 7 22
- 1.33344 3 2 ack 40 ------- 1 3.1 1.0 7 22
r 1.35984 3 2 ack 40 ------- 1 3.1 1.0 7 22
+ 1.35984 2 1 ack 40 ------- 1 3.1 1.0 7 22
- 1.35984 2 1 ack 40 ------- 1 3.1 1.0 7 22
r 1.38112 2 1 ack 40 ------- 1 3.1 1.0 7 22
+ 1.38112 1 2 tcp 1040 ------- 1 1.0 3.1 15 23
- 1.38112 1 2 tcp 1040 ------- 1 1.0 3.1 15 23
+ 1.38112 1 2 tcp 1040 ------- 1 1.0 3.1 16 24
- 1.4144 1 2 tcp 1040 ------- 1 1.0 3.1 16 24
r 1.4344 1 2 tcp 1040 ------- 1 1.0 3.1 15 23
+ 1.4344 2 3 tcp 1040 ------- 1 1.0 3.1 15 23
r 1.46768 1 2 tcp 1040 ------- 1 1.0 3.1 16 24
+ 1.46768 2 3 tcp 1040 ------- 1 1.0 3.1 16 24
- 1.47984 2 3 tcp 1040 ------- 1 1.0 3.1 9 14
r 1.49984 2 3 tcp 1040 ------- 1 1.0 3.1 8 12
+ 1.49984 3 2 ack 40 ------- 1 3.1 1.0 8 25
- 1.49984 3 2 ack 40 ------- 1 3.1 1.0 8 25
r 1.52624 3 2 ack 40 ------- 1 3.1 1.0 8 25
+ 1.52624 2 1 ack 40 ------- 1 3.1 1.0 8 25
- 1.52624 2 1 ack 40 ------- 1 3.1 1.0 8 25
r 1.54752 2 1 ack 40 ------- 1 3.1 1.0 8 25
+ 1.54752 1 2 tcp 1040 ------- 1 1.0 3.1 17 26
- 1.54752 1 2 tcp 1040 ------- 1 1.0 3.1 17 26
+ 1.54752 1 2 tcp 1040 ------- 1 1.0 3.1 18 27
- 1.5808 1 2 tcp 1040 ------- 1 1.0 3.1 18 27
r 1.6008 1 2 tcp 1040 ------- 1 1.0 3.1 17 26
+ 1.6008 2 3 tcp 1040 ------- 1 1.0 3.1 17 26
r 1.63408 1 2 tcp 1040 ------- 1 1.0 3.1 18 27
+ 1.63408 2 3 tcp 1040 ------- 1 1.0 3.1 18 27
- 1.64624 2 3 tcp 1040 ------- 1 1.0 3.1 10 15
r 1.66624 2 3 tcp 1040 ------- 1 1.0 3.1 9 14
+ 1.66624 3 2 ack 40 ------- 1 3.1 1.0 9 28
- 1.66624 3 2 ack 40 ------- 1 3.1 1.0 9 28
r 1.69264 3 2 ack 40 ------- 1 3.1 1.0 9 28
+ 1.69264 2 1 ack 40 ------- 1 3.1 1.0 9 28
- 1.69264 2 1 ack 40 ------- 1 3.1 1.0 9 28
r 1.71392 2 1 ack 40 ------- 1 3.1 1.0 9 28
+ 1.71392 1 2 tcp 1040 ------- 1 1.0 3.1 19 29
- 1.71392 1 2 tcp 1040 ------- 1 1.0 3.1 19 29
r 1.7672 1 2 tcp 1040 ------- 1 1.0 3.1 19 29
+ 1.7672 2 3 tcp 1040 ------- 1 1.0 3.1 19 29
- 1.81264 2 3 tcp 1040 ------- 1 1.0 3.1 11 17
r 1.83264 2 3 tcp 1040 ------- 1 1.0 3.1 10 15
+ 1.83264 3 2 ack 40 ------- 1 3.1 1.0 10 30
- 1.83264 3 2 ack 40 ------- 1 3.1 1.0 10 30
r 1.85904 3 2 ack 40 ------- 1 3.1 1.0 10 30
+ 1.85904 2 1 ack 40 ------- 1 3.1 1.0 10 30
- 1.85904 2 1 ack 40 ------- 1 3.1 1.0 10 30
r 1.88032 2 1 ack 40 ------- 1 3.1 1.0 10 30
+ 1.88032 1 2 tcp 1040 ------- 1 1.0 3.1 20 31
- 1.88032 1 2 tcp 1040 ------- 1 1.0 3.1 20 31
r 1.9336 1 2 tcp 1040 ------- 1 1.0 3.1 20 31
+ 1.9336 2 3 tcp 1040 ------- 1 1.0 3.1 20 31
- 1.97904 2 3 tcp 1040 ------- 1 1.0 3.1 12 18
r 1.99904 2 3 tcp 1040 ------- 1 1.0 3.1 11 17
+ 1.99904 3 2 ack 40 ------- 1 3.1 1.0 11 32
- 1.99904 3 2 ack 40 ------- 1 3.1 1.0 11 32
r 2.02544 3 2 ack 40 ------- 1 3.1 1.0 11 32
+ 2.02544 2 1 ack 40 ------- 1 3.1 1.0 11 32
- 2.02544 2 1 ack 40 ------- 1 3.1 1.0 11 32
r 2.04672 2 1 ack 40 ------- 1 3.1 1.0 11 32
+ 2.04672 1 2 tcp 1040 ------- 1 1.0 3.1 21 33
- 2.04672 1 2 tcp 1040 ------- 1 1.0 3.1 21 33
r 2.1 1 2 tcp 1040 ------- 1 1.0 3.1 21 33
+ 2.1 2 3 tcp 1040 ------- 1 1.0 3.1 21 33
- 2.14544 2 3 tcp 1040 ------- 1 1.0 3.1 13 20
r 2.16544 2 3 tcp 1040 ------- 1 1.0 3.1 12 18
+ 2.16544 3 2 ack 40 ------- 1 3.1 1.0 12 34
- 2.16544 3 2 ack 40 ------- 1 3.1 1.0 12 34
r 2.19184 3 2 ack 40 ------- 1 3.1 1.0 12 34
+ 2.19184 2 1 ack 40 ------- 1 3.1 1.0 12 34
- 2.19184 2 1 ack 40 ------- 1 3.1 1.0 12 34
r 2.21312 2 1 ack 40 ------- 1 3.1 1.0 12 34
+ 2.21312 1 2 tcp 1040 ------- 1 1.0 3.1 22 35
- 2.21312 1 2 tcp 1040 ------- 1 1.0 3.1 22 35
r 2.2664 1 2 tcp 1040 ------- 1 1.0 3.1 22 35
+ 2.2664 2 3 tcp 1040 ------- 1 1.0 3.1 22 35
- 2.31184 2 3 tcp 1040 ------- 1 1.0 3.1 14 21
r 2.33184 2 3 tcp 1040 ------- 1 1.0 3.1 13 20
+ 2.33184 3 2 ack 40 ------- 1 3.1 1.0 13 36
- 2.33184 3 2 ack 40 ------- 1 3.1 1.0 13 36
r 2.35824 3 2 ack 40 ------- 1 3.1 1.0 13 36
+ 2.35824 2 1 ack 40 ------- 1 3.1 1.0 13 36
- 2.35824 2 1 ack 40 ------- 1 3.1 1.0 13 36
r 2.37952 2 1 ack 40 ------- 1 3.1 1.0 13 36
+ 2.37952 1 2 tcp 1040 ------- 1 1.0 3.1 23 37
- 2.37952 1 2 tcp 1040 ------- 1 1.0 3.1 23 37
r 2.4328 1 2 tcp 1040 ------- 1 1.0 3.1 23 37
+ 2.4328 2 3 tcp 1040 ------- 1 1.0 3.1 23 37
- 2.47824 2 3 tcp 1040 ------- 1 1.0 3.1 15 23
r 2.49824 2 3 tcp 1040 ------- 1 1.0 3.1 14 21
+ 2.49824 3 2 ack 40 ------- 1 3.1 1.0 14 38
- 2.49824 3 2 ack 40 ------- 1 3.1 1.0 14 38
r 2.52464 3 2 ack 40 ------- 1 3.1 1.0 14 38
+ 2.52464 2 1 ack 40 ------- 1 3.1 1.0 14 38
- 2.52464 2 1 ack 40 ------- 1 3.1 1.0 14 38
r 2.54592 2 1 ack 40 ------- 1 3.1 1.0 14 38
+ 2.54592 1 2 tcp 1040 ------- 1 1.0 3.1 24 39
- 2.54592 1 2 tcp 1040 ------- 1 1.0 3.1 24 39
r 2.5992 1 2 tcp 1040 ------- 1 1.0 3.1 24 39
+ 2.5992 2 3 tcp 1040 ------- 1 1.0 3.1 24 39
- 2.64464 2 3 tcp 1040 ------- 1 1.0 3.1 16 24
r 2.66464 2 3 tcp 1040 ------- 1 1.0 3.1 15 23
+ 2.66464 3 2 ack 40 ------- 1 3.1 1.0 15 40
- 2.66464 3 2 ack 40 ------- 1 3.1 1.0 15 40
r 2.69104 3 2 ack 40 ------- 1 3.1 1.0 15 40
+ 2.69104 2 1 ack 40 ------- 1 3.1 1.0 15 40
- 2.69104 2 1 ack 40 ------- 1 3.1 1.0 15 40
r 2.71232 2 1 ack 40 ------- 1 3.1 1.0 15 40
+ 2.71232 1 2 tcp 1040 ------- 1 1.0 3.1 25 41
- 2.71232 1 2 tcp 1040 ------- 1 1.0 3.1 25 41
r 2.7656 1 2 tcp 1040 ------- 1 1.0 3.1 25 41
+ 2.7656 2 3 tcp 1040 ------- 1 1.0 3.1 25 41
- 2.81104 2 3 tcp 1040 ------- 1 1.0 3.1 17 26
r 2.83104 2 3 tcp 1040 ------- 1 1.0 3.1 16 24
+ 2.83104 3 2 ack 40 ------- 1 3.1 1.0 16 42
- 2.83104 3 2 ack 40 ------- 1 3.1 1.0 16 42
r 2.85744 3 2 ack 40 ------- 1 3.1 1.0 16 42
+ 2.85744 2 1 ack 40 ------- 1 3.1 1.0 16 42
- 2.85744 2 1 ack 40 ------- 1 3.1 1.0 16 42
r 2.87872 2 1 ack 40 ------- 1 3.1 1.0 16 42
+ 2.87872 1 2 tcp 1040 ------- 1 1.0 3.1 26 43
- 2.87872 1 2 tcp 1040 ------- 1 1.0 3.1 26 43
r 2.932 1 2 tcp 1040 ------- 1 1.0 3.1 26 43
+ 2.932 2 3 tcp 1040 ------- 1 1.0 3.1 26 43
- 2.97744 2 3 tcp 1040 ------- 1 1.0 3.1 18 27
r 2.99744 2 3 tcp 1040 ------- 1 1.0 3.1 17 26
+ 2.99744 3 2 ack 40 ------- 1 3.1 1.0 17 44
- 2.99744 3 2 ack 40 ------- 1 3.1 1.0 17 44
r 3.02384 3 2 ack 40 ------- 1 3.1 1.0 17 44
+ 3.02384 2 1 ack 40 ------- 1 3.1 1.0 17 44
- 3.02384 2 1 ack 40 ------- 1 3.1 1.0 17 44
r 3.04512 2 1 ack 40 ------- 1 3.1 1.0 17 44
+ 3.04512 1 2 tcp 1040 ------- 1 1.0 3.1 27 45
- 3.04512 1 2 tcp 1040 ------- 1 1.0 3.1 27 45
r 3.0984 1 2 tcp 1040 ------- 1 1.0 3.1 27 45
+ 3.0984 2 3 tcp 1040 ------- 1 1.0 3.1 27 45
- 3.14384 2 3 tcp 1040 ------- 1 1.0 3.1 19 29
r 3.16384 2 3 tcp 1040 ------- 1 1.0 3.1 18 27
+ 3.16384 3 2 ack 40 ------- 1 3.1 1.0 18 46
- 3.16384 3 2 ack 40 ------- 1 3.1 1.0 18 46
r 3.19024 3 2 ack 40 ------- 1 3.1 1.0 18 46
+ 3.19024 2 1 ack 40 ------- 1 3.1 1.0 18 46
- 3.19024 2 1 ack 40 ------- 1 3.1 1.0 18 46
r 3.21152 2 1 ack 40 ------- 1 3.1 1.0 18 46
+ 3.21152 1 2 tcp 1040 ------- 1 1.0 3.1 28 47
- 3.21152 1 2 tcp 1040 ------- 1 1.0 3.1 28 47
r 3.2648 1 2 tcp 1040 ------- 1 1.0 3.1 28 47
+ 3.2648 2 3 tcp 1040 ------- 1 1.0 3.1 28 47
- 3.31024 2 3 tcp 1040 ------- 1 1.0 3.1 20 31
r 3.33024 2 3 tcp 1040 ------- 1 1.0 3.1 19 29
+ 3.33024 3 2 ack 40 ------- 1 3.1 1.0 19 48
- 3.33024 3 2 ack 40 ------- 1 3.1 1.0 19 48
r 3.35664 3 2 ack 40 ------- 1 3.1 1.0 19 48
+ 3.35664 2 1 ack 40 ------- 1 3.1 1.0 19 48
- 3.35664 2 1 ack 40 ------- 1 3.1 1.0 19 48
r 3.37792 2 1 ack 40 ------- 1 3.1 1.0 19 48
+ 3.37792 1 2 tcp 1040 ------- 1 1.0 3.1 29 49
- 3.37792 1 2 tcp 1040 ------- 1 1.0 3.1 29 49
r 3.4312 1 2 tcp 1040 ------- 1 1.0 3.1 29 49
+ 3.4312 2 3 tcp 1040 ------- 1 1.0 3.1 29 49
- 3.47664 2 3 tcp 1040 ------- 1 1.0 3.1 21 33
r 3.49664 2 3 tcp 1040 ------- 1 1.0 3.1 20 31
+ 3.49664 3 2 ack 40 ------- 1 3.1 1.0 20 50
- 3.49664 3 2 ack 40 ------- 1 3.1 1.0 20 50
r 3.52304 3 2 ack 40 ------- 1 3.1 1.0 20 50
+ 3.52304 2 1 ack 40 ------- 1 3.1 1.0 20 50
- 3.52304 2 1 ack 40 ------- 1 3.1 1.0 20 50
r 3.54432 2 1 ack 40 ------- 1 3.1 1.0 20 50
+ 3.54432 1 2 tcp 1040 ------- 1 1.0 3.1 30 51
- 3.54432 1 2 tcp 1040 ------- 1 1.0 3.1 30 51
r 3.5976 1 2 tcp 1040 ------- 1 1.0 3.1 30 51
+ 3.5976 2 3 tcp 1040 ------- 1 1.0 3.1 30 51
- 3.64304 2 3 tcp 1040 ------- 1 1.0 3.1 22 35
r 3.66304 2 3 tcp 1040 ------- 1 1.0 3.1 21 33
+ 3.66304 3 2 ack 40 ------- 1 3.1 1.0 21 52
- 3.66304 3 2 ack 40 ------- 1 3.1 1.0 21 52
r 3.68944 3 2 ack 40 ------- 1 3.1 1.0 21 52
+ 3.68944 2 1 ack 40 ------- 1 3.1 1.0 21 52
- 3.68944 2 1 ack 40 ------- 1 3.1 1.0 21 52
r 3.71072 2 1 ack 40 ------- 1 3.1 1.0 21 52
+ 3.71072 1 2 tcp 1040 ------- 1 1.0 3.1 31 53
- 3.71072 1 2 tcp 1040 ------- 1 1.0 3.1 31 53
r 3.764 1 2 tcp 1040 ------- 1 1.0 3.1 31 53
+ 3.764 2 3 tcp 1040 ------- 1 1.0 3.1 31 53
- 3.80944 2 3 tcp 1040 ------- 1 1.0 3.1 23 37
r 3.82944 2 3 tcp 1040 ------- 1 1.0 3.1 22 35
+ 3.82944 3 2 ack 40 ------- 1 3.1 1.0 22 54
- 3.82944 3 2 ack 40 ------- 1 3.1 1.0 22 54
r 3.85584 3 2 ack 40 ------- 1 3.1 1.0 22 54
+ 3.85584 2 1 ack 40 ------- 1 3.1 1.0 22 54
- 3.85584 2 1 ack 40 ------- 1 3.1 1.0 22 54
r 3.87712 2 1 ack 40 ------- 1 3.1 1.0 22 54
+ 3.87712 1 2 tcp 1040 ------- 1 1.0 3.1 32 55
- 3.87712 1 2 tcp 1040 ------- 1 1.0 3.1 32 55
r 3.9304 1 2 tcp 1040 ------- 1 1.0 3.1 32 55
+ 3.9304 2 3 tcp 1040 ------- 1 1.0 3.1 32 55
- 3.97584 2 3 tcp 1040 ------- 1 1.0 3.1 24 39
r 3.99584 2 3 tcp 1040 ------- 1 1.0 3.1 23 37
+ 3.99584 3 2 ack 40 ------- 1 3.1 1.0 23 56
- 3.99584 3 2 ack 40 ------- 1 3.1 1.0 23 56
r 4.02224 3 2 ack 40 ------- 1 3.1 1.0 23 56
+ 4.02224 2 1 ack 40 ------- 1 3.1 1.0 23 56
- 4.02224 2 1 ack 40 ------- 1 3.1 1.0 23 56
r 4.04352 2 1 ack 40 ------- 1 3.1 1.0 23 56
+ 4.04352 1 2 tcp 1040 ------- 1 1.0 3.1 33 57
- 4.04352 1 2 tcp 1040 ------- 1 1.0 3.1 33 57
r 4.0968 1 2 tcp 1040 ------- 1 1.0 3.1 33 57
+ 4.0968 2 3 tcp 1040 ------- 1 1.0 3.1 33 57
- 4.14224 2 3 tcp 1040 ------- 1 1.0 3.1 25 41
r 4.16224 2 3 tcp 1040 ------- 1 1.0 3.1 24 39
+ 4.16224 3 2 ack 40 ------- 1 3.1 1.0 24 58
- 4.16224 3 2 ack 40 ------- 1 3.1 1.0 24 58
r 4.18864 3 2 ack 40 ------- 1 3.1 1.0 24 58
+ 4.18864 2 1 ack 40 ------- 1 3.1 1.0 24 58
- 4.18864 2 1 ack 40 ------- 1 3.1 1.0 24 58
r 4.20992 2 1 ack 40 ------- 1 3.1 1.0 24 58
+ 4.20992 1 2 tcp 1040 ------- 1 1.0 3.1 34 59
- 4.20992 1 2 tcp 1040 ------- 1 1.0 3.1 34 59
r 4.2632 1 2 tcp 1040 ------- 1 1.0 3.1 34 59
+ 4.2632 2 3 tcp 1040 ------- 1 1.0 3.1 34 59
- 4.30864 2 3 tcp 1040 ------- 1 1.0 3.1 26 43
r 4.32864 2 3 tcp 1040 ------- 1 1.0 3.1 25 41
+ 4.32864 3 2 ack 40 ------- 1 3.1 1.0 25 60
- 4.32864 3 2 ack 40 ------- 1 3.1 1.0 25 60
r 4.35504 3 2 ack 40 ------- 1 3.1 1.0 25 60
+ 4.35504 2 1 ack 40 ------- 1 3.1 1.0 25 60
- 4.35504 2 1 ack 40 ------- 1 3.1 1.0 25 60
r 4.37632 2 1 ack 40 ------- 1 3.1 1.0 25 60
+ 4.37632 1 2 tcp 1040 ------- 1 1.0 3.1 35 61
- 4.37632 1 2 tcp 1040 ------- 1 1.0 3.1 35 61
r 4.4296 1 2 tcp 1040 ------- 1 1.0 3.1 35 61
+ 4.4296 2 3 tcp 1040 ------- 1 1.0 3.1 35 61
- 4.47504 2 3 tcp 1040 ------- 1 1.0 3.1 27 45
r 4.49504 2 3 tcp 1040 ------- 1 1.0 3.1 26 43
+ 4.49504 3 2 ack 40 ------- 1 3.1 1.0 26 62
- 4.49504 3 2 ack 40 ------- 1 3.1 1.0 26 62
r 4.52144 3 2 ack 40 ------- 1 3.1 1.0 26 62
+ 4.52144 2 1 ack 40 ------- 1 3.1 1.0 26 62
- 4.52144 2 1 ack 40 ------- 1 3.1 1.0 26 62
r 4.54272 2 1 ack 40 ------- 1 3.1 1.0 26 62
+ 4.54272 1 2 tcp 1040 ------- 1 1.0 3.1 36 63
- 4.54272 1 2 tcp 1040 ------- 1 1.0 3.1 36 63
r 4.596 1 2 tcp 1040 ------- 1 1.0 3.1 36 63
+ 4.596 2 3 tcp 1040 ------- 1 1.0 3.1 36 63
- 4.64144 2 3 tcp 1040 ------- 1 1.0 3.1 28 47
r 4.66144 2 3 tcp 1040 ------- 1 1.0 3.1 27 45
+ 4.66144 3 2 ack 40 ------- 1 3.1 1.0 27 64
- 4.66144 3 2 ack 40 ------- 1 3.1 1.0 27 64
r 4.68784 3 2 ack 40 ------- 1 3.1 1.0 27 64
+ 4.68784 2 1 ack 40 ------- 1 3.1 1.0 27 64
- 4.68784 2 1 ack 40 ------- 1 3.1 1.0 27 64
r 4.70912 2 1 ack 40 ------- 1 3.1 1.0 27 64
+ 4.70912 1 2 tcp 1040 ------- 1 1.0 3.1 37 65
- 4.70912 1 2 tcp 1040 ------- 1 1.0 3.1 37 65
r 4.7624 1 2 tcp 1040 ------- 1 1.0 3.1 37 65
+ 4.7624 2 3 tcp 1040 ------- 1 1.0 3.1 37 65
- 4.80784 2 3 tcp 1040 ------- 1 1.0 3.1 29 49
r 4.82784 2 3 tcp 1040 ------- 1 1.0 3.1 28 47
+ 4.82784 3 2 ack 40 ------- 1 3.1 1.0 28 66
- 4.82784 3 2 ack 40 ------- 1 3.1 1.0 28 66
r 4.85424 3 2 ack 40 ------- 1 3.1 1.0 28 66
+ 4.85424 2 1 ack 40 ------- 1 3.1 1.0 28 66
- 4.85424 2 1 ack 40 ------- 1 3.1 1.0 28 66
r 4.87552 2 1 ack 40 ------- 1 3.1 1.0 28 66
+ 4.87552 1 2 tcp 1040 ------- 1 1.0 3.1 38 67
- 4.87552 1 2 tcp 1040 ------- 1 1.0 3.1 38 67
r 4.9288 1 2 tcp 1040 ------- 1 1.0 3.1 38 67
+ 4.9288 2 3 tcp 1040 ------- 1 1.0 3.1 38 67
- 4.97424 2 3 tcp 1040 ------- 1 1.0 3.1 30 51
r 4.99424 2 3 tcp 1040 ------- 1 1.0 3.1 29 49
+ 4.99424 3 2 ack 40 ------- 1 3.1 1.0 29 68
- 4.99424 3 2 ack 40 ------- 1 3.1 1.0 29 68
r 5.02064 3 2 ack 40 ------- 1 3.1 1.0 29 68
+ 5.02064 2 1 ack 40 ------- 1 3.1 1.0 29 68
- 5.02064 2 1 ack 40 ------- 1 3.1 1.0 29 68
r 5.04192 2 1 ack 40 ------- 1 3.1 1.0 29 68
+ 5.04192 1 2 tcp 1040 ------- 1 1.0 3.1 39 69
- 5.04192 1 2 tcp 1040 ------- 1 1.0 3.1 39 69
r 5.0952 1 2 tcp 1040 ------- 1 1.0 3.1 39 69
+ 5.0952 2 3 tcp 1040 ------- 1 1.0 3.1 39 69
- 5.14064 2 3 tcp 1040 ------- 1 1.0 3.1 31 53
r 5.16064 2 3 tcp 1040 ------- 1 1.0 3.1 30 51
+ 5.16064 3 2 ack 40 ------- 1 3.1 1.0 30 70
- 5.16064 3 2 ack 40 ------- 1 3.1 1.0 30 70
r 5.18704 3 2 ack 40 ------- 1 3.1 1.0 30 70
+ 5.18704 2 1 ack 40 ------- 1 3.1 1.0 30 70
- 5.18704 2 1 ack 40 ------- 1 3.1 1.0 30 70
r 5.20832 2 1 ack 40 ------- 1 3.1 1.0 30 70
+ 5.20832 1 2 tcp 1040 ------- 1 1.0 3.1 40 71
- 5.20832 1 2 tcp 1040 ------- 1 1.0 3.1 40 71
r 5.2616 1 2 tcp 1040 ------- 1 1.0 3.1 40 71
+ 5.2616 2 3 tcp 1040 ------- 1 1.0 3.1 40 71
- 5.30704 2 3 tcp 1040 ------- 1 1.0 3.1 32 55
r 5.32704 2 3 tcp 1040 ------- 1 1.0 3.1 31 53
+ 5.32704 3 2 ack 40 ------- 1 3.1 1.0 31 72
- 5.32704 3 2 ack 40 ------- 1 3.1 1.0 31 72
r 5.35344 3 2 ack 40 ------- 1 3.1 1.0 31 72
+ 5.35344 2 1 ack 40 ------- 1 3.1 1.0 31 72
- 5.35344 2 1 ack 40 ------- 1 3.1 1.0 31 72
r 5.37472 2 1 ack 40 ------- 1 3.1 1.0 31 72
+ 5.37472 1 2 tcp 1040 ------- 1 1.0 3.1 41 73
- 5.37472 1 2 tcp 1040 ------- 1 1.0 3.1 41 73
r 5.428 1 2 tcp 1040 ------- 1 1.0 3.1 41 73
+ 5.428 2 3 tcp 1040 ------- 1 1.0 3.1 41 73
- 5.47344 2 3 tcp 1040 ------- 1 1.0 3.1 33 57
r 5.49344 2 3 tcp 1040 ------- 1 1.0 3.1 32 55
+ 5.49344 3 2 ack 40 ------- 1 3.1 1.0 32 74
- 5.49344 3 2 ack 40 ------- 1 3.1 1.0 32 74
r 5.51984 3 2 ack 40 ------- 1 3.1 1.0 32 74
+ 5.51984 2 1 ack 40 ------- 1 3.1 1.0 32 74
- 5.51984 2 1 ack 40 ------- 1 3.1 1.0 32 74
r 5.54112 2 1 ack 40 ------- 1 3.1 1.0 32 74
+ 5.54112 1 2 tcp 1040 ------- 1 1.0 3.1 42 75
- 5.54112 1 2 tcp 1040 ------- 1 1.0 3.1 42 75
r 5.5944 1 2 tcp 1040 ------- 1 1.0 3.1 42 75
+ 5.5944 2 3 tcp 1040 ------- 1 1.0 3.1 42 75
- 5.63984 2 3 tcp 1040 ------- 1 1.0 3.1 34 59
r 5.65984 2 3 tcp 1040 ------- 1 1.0 3.1 33 57
+ 5.65984 3 2 ack 40 ------- 1 3.1 1.0 33 76
- 5.65984 3 2 ack 40 ------- 1 3.1 1.0 33 76
r 5.68624 3 2 ack 40 ------- 1 3.1 1.0 33 76
+ 5.68624 2 1 ack 40 ------- 1 3.1 1.0 33 76
- 5.68624 2 1 ack 40 ------- 1 3.1 1.0 33 76
r 5.70752 2 1 ack 40 ------- 1 3.1 1.0 33 76
+ 5.70752 1 2 tcp 1040 ------- 1 1.0 3.1 43 77
- 5.70752 1 2 tcp 1040 ------- 1 1.0 3.1 43 77
r 5.7608 1 2 tcp 1040 ------- 1 1.0 3.1 43 77
+ 5.7608 2 3 tcp 1040 ------- 1 1.0 3.1 43 77
- 5.80624 2 3 tcp 1040 ------- 1 1.0 3.1 35 61
r 5.82624 2 3 tcp 1040 ------- 1 1.0 3.1 34 59
+ 5.82624 3 2 ack 40 ------- 1 3.1 1.0 34 78
- 5.82624 3 2 ack 40 ------- 1 3.1 1.0 34 78
r 5.85264 3 2 ack 40 ------- 1 3.1 1.0 34 78
+ 5.85264 2 1 ack 40 ------- 1 3.1 1.0 34 78
- 5.85264 2 1 ack 40 ------- 1 3.1 1.0 34 78
r 5.87392 2 1 ack 40 ------- 1 3.1 1.0 34 78
+ 5.87392 1 2 tcp 1040 ------- 1 1.0 3.1 44 79
- 5.87392 1 2 tcp 1040 ------- 1 1.0 3.1 44 79
r 5.9272 1 2 tcp 1040 ------- 1 1.0 3.1 44 79
+ 5.9272 2 3 tcp 1040 ------- 1 1.0 3.1 44 79
- 5.97264 2 3 tcp 1040 ------- 1 1.0 3.1 36 63
r 5.99264 2 3 tcp 1040 ------- 1 1.0 3.1 35 61
+ 5.99264 3 2 ack 40 ------- 1 3.1 1.0 35 80
- 5.99264 3 2 ack 40 ------- 1 3.1 1.0 35 80
r 6.01904 3 2 ack 40 ------- 1 3.1 1.0 35 80
+ 6.01904 2 1 ack 40 ------- 1 3.1 1.0 35 80
- 6.01904 2 1 ack 40 ------- 1 3.1 1.0 35 80
r 6.04032 2 1 ack 40 ------- 1 3.1 1.0 35 80
+ 6.04032 1 2 tcp 1040 ------- 1 1.0 3.1 45 81
- 6.04032 1 2 tcp 1040 ------- 1 1.0 3.1 45 81
r 6.0936 1 2 tcp 1040 ------- 1 1.0 3.1 45 81
+ 6.0936 2 3 tcp 1040 ------- 1 1.0 3.1 45 81
- 6.13904 2 3 tcp 1040 ------- 1 1.0 3.1 37 65
r 6.15904 2 3 tcp 1040 ------- 1 1.0 3.1 36 63
+ 6.15904 3 2 ack 40 ------- 1 3.1 1.0 36 82
- 6.15904 3 2 ack 40 ------- 1 3.1 1.0 36 82
r 6.18544 3 2 ack 40 ------- 1 3.1 1.0 36 82
+ 6.18544 2 1 ack 40 ------- 1 3.1 1.0 36 82
- 6.18544 2 1 ack 40 ------- 1 3.1 1.0 36 82
r 6.20672 2 1 ack 40 ------- 1 3.1 1.0 36 82
+ 6.20672 1 2 tcp 1040 ------- 1 1.0 3.1 46 83
- 6.20672 1 2 tcp 1040 ------- 1 1.0 3.1 46 83
r 6.26 1 2 tcp 1040 ------- 1 1.0 3.1 46 83
+ 6.26 2 3 tcp 1040 ------- 1 1.0 3.1 46 83
- 6.30544 2 3 tcp 1040 ------- 1 1.0 3.1 38 67
r 6.32544 2 3 tcp 1040 ------- 1 1.0 3.1 37 65
+ 6.32544 3 2 ack 40 ------- 1 3.1 1.0 37 84
- 6.32544 3 2 ack 40 ------- 1 3.1 1.0 37 84
r 6.35184 3 2 ack 40 ------- 1 3.1 1.0 37 84
+ 6.35184 2 1 ack 40 ------- 1 3.1 1.0 37 84
- 6.35184 2 1 ack 40 ------- 1 3.1 1.0 37 84
r 6.37312 2 1 ack 40 ------- 1 3.1 1.0 37 84
+ 6.37312 1 2 tcp 1040 ------- 1 1.0 3.1 47 85
- 6.37312 1 2 tcp 1040 ------- 1 1.0 3.1 47 85
r 6.4264 1 2 tcp 1040 ------- 1 1.0 3.1 47 85
+ 6.4264 2 3 tcp 1040 ------- 1 1.0 3.1 47 85
- 6.47184 2 3 tcp 1040 ------- 1 1.0 3.1 39 69
r 6.49184 2 3 tcp 1040 ------- 1 1.0 3.1 38 67
+ 6.49184 3 2 ack 40 ------- 1 3.1 1.0 38 86
- 6.49184 3 2 ack 40 ------- 1 3.1 1.0 38 86
r 6.51824 3 2 ack 40 ------- 1 3.1 1.0 38 86
+ 6.51824 2 1 ack 40 ------- 1 3.1 1.0 38 86
- 6.51824 2 1 ack 40 ------- 1 3.1 1.0 38 86
r 6.53952 2 1 ack 40 ------- 1 3.1 1.0 38 86
+ 6.53952 1 2 tcp 1040 ------- 1 1.0 3.1 48 87
- 6.53952 1 2 tcp 1040 ------- 1 1.0 3.1 48 87
r 6.5928 1 2 tcp 1040 ------- 1 1.0 3.1 48 87
+ 6.5928 2 3 tcp 1040 ------- 1 1.0 3.1 48 87
- 6.63824 2 3 tcp 1040 ------- 1 1.0 3.1 40 71
r 6.65824 2 3 tcp 1040 ------- 1 1.0 3.1 39 69
+ 6.65824 3 2 ack 40 ------- 1 3.1 1.0 39 88
- 6.65824 3 2 ack 40 ------- 1 3.1 1.0 39 88
r 6.68464 3 2 ack 40 ------- 1 3.1 1.0 39 88
+ 6.68464 2 1 ack 40 ------- 1 3.1 1.0 39 88
- 6.68464 2 1 ack 40 ------- 1 3.1 1.0 39 88
r 6.70592 2 1 ack 40 ------- 1 3.1 1.0 39 88
+ 6.70592 1 2 tcp 1040 ------- 1 1.0 3.1 49 89
- 6.70592 1 2 tcp 1040 ------- 1 1.0 3.1 49 89
r 6.7592 1 2 tcp 1040 ------- 1 1.0 3.1 49 89
+ 6.7592 2 3 tcp 1040 ------- 1 1.0 3.1 49 89
- 6.80464 2 3 tcp 1040 ------- 1 1.0 3.1 41 73
r 6.82464 2 3 tcp 1040 ------- 1 1.0 3.1 40 71
+ 6.82464 3 2 ack 40 ------- 1 3.1 1.0 40 90
- 6.82464 3 2 ack 40 ------- 1 3.1 1.0 40 90
r 6.85104 3 2 ack 40 ------- 1 3.1 1.0 40 90
+ 6.85104 2 1 ack 40 ------- 1 3.1 1.0 40 90
- 6.85104 2 1 ack 40 ------- 1 3.1 1.0 40 90
r 6.87232 2 1 ack 40 ------- 1 3.1 1.0 40 90
+ 6.87232 1 2 tcp 1040 ------- 1 1.0 3.1 50 91
- 6.87232 1 2 tcp 1040 ------- 1 1.0 3.1 50 91
r 6.9256 1 2 tcp 1040 ------- 1 1.0 3.1 50 91
+ 6.9256 2 3 tcp 1040 ------- 1 1.0 3.1 50 91
- 6.97104 2 3 tcp 1040 ------- 1 1.0 3.1 42 75
r 6.99104 2 3 tcp 1040 ------- 1 1.0 3.1 41 73
+ 6.99104 3 2 ack 40 ------- 1 3.1 1.0 41 92
- 6.99104 3 2 ack 40 ------- 1 3.1 1.0 41 92
r 7.01744 3 2 ack 40 ------- 1 3.1 1.0 41 92
+ 7.01744 2 1 ack 40 ------- 1 3.1 1.0 41 92
- 7.01744 2 1 ack 40 ------- 1 3.1 1.0 41 92
r 7.03872 2 1 ack 40 ------- 1 3.1 1.0 41 92
+ 7.03872 1 2 tcp 1040 ------- 1 1.0 3.1 51 93
- 7.03872 1 2 tcp 1040 ------- 1 1.0 3.1 51 93
r 7.092 1 2 tcp 1040 ------- 1 1.0 3.1 51 93
+ 7.092 2 3 tcp 1040 ------- 1 1.0 3.1 51 93
- 7.13744 2 3 tcp 1040 ------- 1 1.0 3.1 43 77
r 7.15744 2 3 tcp 1040 ------- 1 1.0 3.1 42 75
+ 7.15744 3 2 ack 40 ------- 1 3.1 1.0 42 94
- 7.15744 3 2 ack 40 ------- 1 3.1 1.0 42 94
r 7.18384 3 2 ack 40 ------- 1 3.1 1.0 42 94
+ 7.18384 2 1 ack 40 ------- 1 3.1 1.0 42 94
- 7.18384 2 1 ack 40 ------- 1 3.1 1.0 42 94
r 7.20512 2 1 ack 40 ------- 1 3.1 1.0 42 94
+ 7.20512 1 2 tcp 1040 ------- 1 1.0 3.1 52 95
- 7.20512 1 2 tcp 1040 ------- 1 1.0 3.1 52 95
r 7.2584 1 2 tcp 1040 ------- 1 1.0 3.1 52 95
+ 7.2584 2 3 tcp 1040 ------- 1 1.0 3.1 52 95
- 7.30384 2 3 tcp 1040 ------- 1 1.0 3.1 44 79
r 7.32384 2 3 tcp 1040 ------- 1 1.0 3.1 43 77
+ 7.32384 3 2 ack 40 ------- 1 3.1 1.0 43 96
- 7.32384 3 2 ack 40 ------- 1 3.1 1.0 43 96
r 7.35024 3 2 ack 40 ------- 1 3.1 1.0 43 96
+ 7.35024 2 1 ack 40 ------- 1 3.1 1.0 43 96
- 7.35024 2 1 ack 40 ------- 1 3.1 1.0 43 96
r 7.37152 2 1 ack 40 ------- 1 3.1 1.0 43 96
+ 7.37152 1 2 tcp 1040 ------- 1 1.0 3.1 53 97
- 7.37152 1 2 tcp 1040 ------- 1 1.0 3.1 53 97
r 7.4248 1 2 tcp 1040 ------- 1 1.0 3.1 53 97
+ 7.4248 2 3 tcp 1040 ------- 1 1.0 3.1 53 97
- 7.47024 2 3 tcp 1040 ------- 1 1.0 3.1 45 81
r 7.49024 2 3 tcp 1040 ------- 1 1.0 3.1 44 79
+ 7.49024 3 2 ack 40 ------- 1 3.1 1.0 44 98
- 7.49024 3 2 ack 40 ------- 1 3.1 1.0 44 98
r 7.51664 3 2 ack 40 ------- 1 3.1 1.0 44 98
+ 7.51664 2 1 ack 40 ------- 1 3.1 1.0 44 98
- 7.51664 2 1 ack 40 ------- 1 3.1 1.0 44 98
r 7.53792 2 1 ack 40 ------- 1 3.1 1.0 44 98
+ 7.53792 1 2 tcp 1040 ------- 1 1.0 3.1 54 99
- 7.53792 1 2 tcp 1040 ------- 1 1.0 3.1 54 99
r 7.5912 1 2 tcp 1040 ------- 1 1.0 3.1 54 99
+ 7.5912 2 3 tcp 1040 ------- 1 1.0 3.1 54 99
- 7.63664 2 3 tcp 1040 ------- 1 1.0 3.1 46 83
r 7.65664 2 3 tcp 1040 ------- 1 1.0 3.1 45 81
+ 7.65664 3 2 ack 40 ------- 1 3.1 1.0 45 100
- 7.65664 3 2 ack 40 ------- 1 3.1 1.0 45 100
r 7.68304 3 2 ack 40 ------- 1 3.1 1.0 45 100
+ 7.68304 2 1 ack 40 ------- 1 3.1 1.0 45 100
- 7.68304 2 1 ack 40 ------- 1 3.1 1.0 45 100
r 7.70432 2 1 ack 40 ------- 1 3.1 1.0 45 100
+ 7.70432 1 2 tcp 1040 ------- 1 1.0 3.1 55 101
- 7.70432 1 2 tcp 1040 ------- 1 1.0 3.1 55 101
r 7.7576 1 2 tcp 1040 ------- 1 1.0 3.1 55 101
+ 7.7576 2 3 tcp 1040 ------- 1 1.0 3.1 55 101
- 7.80304 2 3 tcp 1040 ------- 1 1.0 3.1 47 85
r 7.82304 2 3 tcp 1040 ------- 1 1.0 3.1 46 83
+ 7.82304 3 2 ack 40 ------- 1 3.1 1.0 46 102
- 7.82304 3 2 ack 40 ------- 1 3.1 1.0 46 102
r 7.84944 3 2 ack 40 ------- 1 3.1 1.0 46 102
+ 7.84944 2 1 ack 40 ------- 1 3.1 1.0 46 102
- 7.84944 2 1 ack 40 ------- 1 3.1 1.0 46 102
r 7.87072 2 1 ack 40 ------- 1 3.1 1.0 46 102
+ 7.87072 1 2 tcp 1040 ------- 1 1.0 3.1 56 103
- 7.87072 1 2 tcp 1040 ------- 1 1.0 3.1 56 103
r 7.924 1 2 tcp 1040 ------- 1 1.0 3.1 56 103
+ 7.924 2 3 tcp 1040 ------- 1 1.0 3.1 56 103
- 7.96944 2 3 tcp 1040 ------- 1 1.0 3.1 48 87
r 7.98944 2 3 tcp 1040 ------- 1 1.0 3.1 47 85
+ 7.98944 3 2 ack 40 ------- 1 3.1 1.0 47 104
- 7.98944 3 2 ack 40 ------- 1 3.1 1.0 47 104
r 8.01584 3 2 ack 40 ------- 1 3.1 1.0 47 104
+ 8.01584 2 1 ack 40 ------- 1 3.1 1.0 47 104
- 8.01584 2 1 ack 40 ------- 1 3.1 1.0 47 104
r 8.03712 2 1 ack 40 ------- 1 3.1 1.0 47 104
+ 8.03712 1 2 tcp 1040 ------- 1 1.0 3.1 57 105
- 8.03712 1 2 tcp 1040 ------- 1 1.0 3.1 57 105
r 8.0904 1 2 tcp 1040 ------- 1 1.0 3.1 57 105
+ 8.0904 2 3 tcp 1040 ------- 1 1.0 3.1 57 105
d 8.0904 2 3 tcp 1040 ------- 1 1.0 3.1 57 105
- 8.13584 2 3 tcp 1040 ------- 1 1.0 3.1 49 89
r 8.15584 2 3 tcp 1040 ------- 1 1.0 3.1 48 87
+ 8.15584 3 2 ack 40 ------- 1 3.1 1.0 48 106
- 8.15584 3 2 ack 40 ------- 1 3.1 1.0 48 106
r 8.18224 3 2 ack 40 ------- 1 3.1 1.0 48 106
+ 8.18224 2 1 ack 40 ------- 1 3.1 1.0 48 106
- 8.18224 2 1 ack 40 ------- 1 3.1 1.0 48 106
r 8.20352 2 1 ack 40 ------- 1 3.1 1.0 48 106
+ 8.20352 1 2 tcp 1040 ------- 1 1.0 3.1 58 107
- 8.20352 1 2 tcp 1040 ------- 1 1.0 3.1 58 107
r 8.2568 1 2 tcp 1040 ------- 1 1.0 3.1 58 107
+ 8.2568 2 3 tcp 1040 ------- 1 1.0 3.1 58 107
- 8.30224 2 3 tcp 1040 ------- 1 1.0 3.1 50 91
r 8.32224 2 3 tcp 1040 ------- 1 1.0 3.1 49 89
+ 8.32224 3 2 ack 40 ------- 1 3.1 1.0 49 108
- 8.32224 3 2 ack 40 ------- 1 3.1 1.0 49 108
r 8.34864 3 2 ack 40 ------- 1 3.1 1.0 49 108
+ 8.34864 2 1 ack 40 ------- 1 3.1 1.0 49 108
- 8.34864 2 1 ack 40 ------- 1 3.1 1.0 49 108
r 8.36992 2 1 ack 40 ------- 1 3.1 1.0 49 108
+ 8.36992 1 2 tcp 1040 ------- 1 1.0 3.1 59 109
- 8.36992 1 2 tcp 1040 ------- 1 1.0 3.1 59 109
r 8.4232 1 2 tcp 1040 ------- 1 1.0 3.1 59 109
+ 8.4232 2 3 tcp 1040 ------- 1 1.0 3.1 59 109
- 8.46864 2 3 tcp 1040 ------- 1 1.0 3.1 51 93
r 8.48864 2 3 tcp 1040 ------- 1 1.0 3.1 50 91
+ 8.48864 3 2 ack 40 ------- 1 3.1 1.0 50 110
- 8.48864 3 2 ack 40 ------- 1 3.1 1.0 50 110
r 8.51504 3 2 ack 40 ------- 1 3.1 1.0 50 110
+ 8.51504 2 1 ack 40 ------- 1 3.1 1.0 50 110
- 8.51504 2 1 ack 40 ------- 1 3.1 1.0 50 110
r 8.53632 2 1 ack 40 ------- 1 3.1 1.0 50 110
+ 8.53632 1 2 tcp 1040 ------- 1 1.0 3.1 60 111
- 8.53632 1 2 tcp 1040 ------- 1 1.0 3.1 60 111
r 8.5896 1 2 tcp 1040 ------- 1 1.0 3.1 60 111
+ 8.5896 2 3 tcp 1040 ------- 1 1.0 3.1 60 111
- 8.63504 2 3 tcp 1040 ------- 1 1.0 3.1 52 95
r 8.65504 2 3 tcp 1040 ------- 1 1.0 3.1 51 93
+ 8.65504 3 2 ack 40 ------- 1 3.1 1.0 51 112